
          ---- Mineral saturation index (log(Q/K)) vs. grid blocks at specified times ----

 
VARIABLES =X,       Y,      Z,       calcite    ,quartz     ,k-feldspar ,smectite-ca,muscovite  ,siderite-2 ,albite~low ,kaolinite  ,dolomite-2 ,chlorite   ,dawsonite  ,oligoclase ,illite     ,hematite   ,ankerite-2 ,magnesite  ,chalcedony ,
ZONE T= "0.499669E+02 yr"  F=POINT
      0.500      0.000     -1.000    0.000000    0.424376   -0.744201   -0.003801   -1.582728    0.000002   -0.761909    0.397571   -5.271197  -17.480501    0.027295  -15.666240    0.529302   -6.889116   -0.872191   -3.827731    0.297880
      0.500      0.000     -3.000    0.000000    0.461073   -0.661691    0.024994   -1.631054    0.000037   -0.680889    0.338283   -5.269128  -17.519170   -0.000096  -15.401286    0.529341   -6.908026   -0.871545   -3.825662    0.334577
      0.500      0.000     -5.000    0.000000    0.958102    0.919985    0.065662   -0.969954   -0.000001    0.855285    0.360079   -9.535680  -27.802046   -0.000323   -9.137789    0.464822   -7.119835   -2.151538   -8.092214    0.831606
      0.500      0.000     -7.000    0.000000    0.963164    0.935006    0.104112   -0.951858   -0.000002    0.870684    0.373629   -9.476902  -27.631946   -0.000527   -9.062580    0.499993   -7.117659   -2.133905   -8.033436    0.836668
      0.500      0.000     -9.000    0.000000    0.968219    0.477559    0.000791   -2.353837   -0.000002    0.413374   -0.560698   -6.737135  -21.709502   -0.473328  -11.825917    0.116328   -7.116715   -1.311975   -5.293669    0.841723
      0.500      0.000    -11.000    0.000000    0.974641    0.375394    0.001304   -2.698954   -0.000003    0.311270   -0.790784   -6.006751  -20.105594   -0.594991  -12.464147    0.042115   -7.116139   -1.092860   -4.563285    0.848145
      0.500      0.000    -13.000    0.000000    0.981074    0.354981    0.001449   -2.803030   -0.000004    0.290619   -0.861896   -5.819919  -19.702495   -0.635521  -12.616966    0.016417   -7.116492   -1.036811   -4.376453    0.854578
      0.500      0.000    -15.000    0.000000    0.978201    0.342368    0.001588   -2.811988   -0.000005    0.278803   -0.863104   -5.787786  -19.626272   -0.637477  -12.667563    0.015148   -7.114880   -1.027172   -4.344320    0.851705
      0.500      0.000    -17.000    0.000000    0.983358    0.354679    0.001652   -2.813865   -0.000007    0.290550   -0.867662   -5.816958  -19.702326   -0.641415  -12.624233    0.011729   -7.117438   -1.035925   -4.373491    0.856862
      0.500      0.000    -19.000    0.000000    0.980722    0.356373    0.001815   -2.785207   -0.000009    0.292711   -0.845461   -5.866648  -19.810575   -0.629915  -12.595329    0.018606   -7.117738   -1.050833   -4.423181    0.854225
      0.500      0.000    -21.000    0.000000    0.975698    0.351537    0.002068   -2.757420   -0.000013    0.288660   -0.822000   -5.899415  -19.875460   -0.617376  -12.590475    0.026676   -7.116574   -1.060667   -4.455949    0.849202
      0.500      0.000    -23.000    0.000000    0.954445    0.768288    0.799813   -1.333646   -0.000023    0.708413    0.145928   -5.934353  -19.014313   -0.129456   -9.951357    1.088095   -7.109365   -1.071154   -4.490887    0.827949
      0.500      0.000    -25.000    0.000000    0.980328    0.363156    0.003289   -2.756590   -0.000040    0.299694   -0.824242   -5.925413  -19.949053   -0.619045  -12.549056    0.025267   -7.121721   -1.068485   -4.481947    0.853831
      0.500      0.000    -27.000    0.000000    0.953527    0.446656    0.230511   -2.288492   -0.000009    0.386952   -0.488956   -5.952223  -19.702286   -0.446424  -11.873990    0.350487   -7.111599   -1.076506   -4.508757    0.827031
      0.500      0.000    -29.000    0.000001    0.977234    0.361628    0.009132   -2.734438    0.003251    0.298637   -0.806225   -5.934880  -19.953833   -0.609233  -12.537381    0.036665   -7.115627   -1.069021   -4.491414    0.850737
      0.500      0.000    -31.000    0.000001    0.941753    0.327568    0.055905   -2.547382    0.175370    0.269450   -0.650571   -5.962608  -19.479957   -0.522824  -12.513125    0.136839   -6.763080   -0.956856   -4.519143    0.815257
      0.500      0.000    -33.000    0.000001    0.866120    0.776276    1.089795   -0.562068    0.269538    0.727427    0.744798   -6.028266  -18.190163    0.196338   -9.330166    1.562629   -6.587012   -0.910635   -4.584800    0.739624
      0.500      0.000    -35.000    0.000001    0.945219    0.329689    0.049816   -2.568044    0.159889    0.271109   -0.666953   -5.960245  -19.529668   -0.531505  -12.522399    0.125003   -6.796501   -0.966983   -4.516779    0.818723
      0.500      0.000    -37.000    0.000000    0.960985    0.333361    0.008285   -2.687142   -0.000076    0.272641   -0.760564   -5.947354  -19.962038   -0.583226  -12.601556    0.053416   -7.116660   -1.075092   -4.503888    0.834489
      0.500      0.000    -39.000    0.000000    0.978783    0.361606    0.002294   -2.746546   -0.000040    0.298347   -0.815529   -5.942230  -19.993080   -0.613636  -12.548060    0.026915   -7.124482   -1.073530   -4.498764    0.852287
      1.607      0.000     -1.000   -0.000001    0.424359   -0.744232   -0.003804   -1.582685    0.000002   -0.761942    0.397613   -5.271214  -17.480496    0.027308  -15.666331    0.529315   -6.889085   -0.872196   -3.827747    0.297863
      1.607      0.000     -3.000    0.000000    0.460646   -0.662965    0.024185   -1.631393    0.000036   -0.682144    0.338386   -5.268977  -17.518831   -0.000092  -15.406202    0.528698   -6.907786   -0.871501   -3.825511    0.334149
      1.607      0.000     -5.000    0.000000    0.958072    0.919883    0.065573   -0.970062   -0.000001    0.855183    0.360013   -9.535523  -27.801813   -0.000322   -9.138277    0.464741   -7.119857   -2.151491   -8.092057    0.831576
      1.607      0.000     -7.000    0.000000    0.963958    0.937648    0.104066   -0.950423   -0.000002    0.873206    0.373871   -9.485034  -27.651504   -0.000527   -9.051971    0.499849   -7.118004   -2.136344   -8.041567    0.837462
      1.607      0.000     -9.000    0.000000    0.969824    0.481359    0.000770   -2.355503   -0.000003    0.416936   -0.563229   -6.742987  -21.725631   -0.474852  -11.813654    0.115185   -7.117418   -1.313731   -5.299521    0.843328
      1.607      0.000    -11.000    0.000000    0.974309    0.375334    0.001306   -2.696565   -0.000003    0.311247   -0.788958   -6.009973  -20.112224   -0.593944  -12.462529    0.042789   -7.116085   -1.093827   -4.566507    0.847812
      1.607      0.000    -13.000    0.000000    0.977999    0.350365    0.001469   -2.792058   -0.000004    0.286432   -0.851961   -5.825989  -19.710407   -0.629870  -12.624890    0.020198   -7.115438   -1.038632   -4.382523    0.851503
      1.607      0.000    -15.000    0.000000    0.977066    0.340784    0.001596   -2.807733   -0.000005    0.277377   -0.859352   -5.790512  -19.629678   -0.635399  -12.669796    0.016598   -7.114265   -1.027990   -4.347046    0.850570
      1.607      0.000    -17.000    0.000000    0.978347    0.346655    0.001688   -2.797478   -0.000006    0.283235   -0.852455   -5.823650  -19.707549   -0.632811  -12.639991    0.017577   -7.115468   -1.037932   -4.380184    0.851851
      1.607      0.000    -19.000    0.000000    0.984517    0.362954    0.001781   -2.796548   -0.000011    0.298739   -0.856430   -5.863798  -19.810749   -0.636138  -12.580681    0.014447   -7.118957   -1.049979   -4.420332    0.858020
      1.607      0.000    -21.000    0.000000    0.967326    0.337696    0.002134   -2.731204   -0.000011    0.275990   -0.797347   -5.907997  -19.878795   -0.603418  -12.619356    0.036200   -7.113387   -1.063240   -4.464531    0.840829
      1.607      0.000    -23.000    0.000000    0.979176    0.859304    0.887712   -1.260157   -0.000044    0.795980    0.173915   -5.912301  -18.915042   -0.119904   -9.565328    1.174738   -7.119942   -1.064554   -4.468835    0.852679
      1.607      0.000    -25.000    0.000000    0.972012    0.348996    0.003235   -2.731861   -0.000034    0.286713   -0.800626   -5.931614  -19.946548   -0.605715  -12.580085    0.034342   -7.118227   -1.070341   -4.488148    0.845516
      1.607      0.000    -27.000    0.000000    0.972350    0.438844    0.160427   -2.464336   -0.000069    0.376534   -0.622311   -5.936429  -19.781807   -0.516605  -12.042752    0.238557   -7.118986   -1.071810   -4.492963    0.845854
      1.607      0.000    -29.000    0.000001    0.974286    0.356335    0.008490   -2.726797    0.003379    0.293761   -0.798704   -5.936934  -19.951946   -0.605013  -12.550096    0.039088   -7.113726   -1.069548   -4.493469    0.847789
      1.607      0.000    -31.000    0.000000    0.954473    0.336895    0.034167   -2.622847    0.120744    0.277069   -0.711841   -5.952748  -19.638559   -0.556425  -12.538945    0.094449   -6.875572   -0.992136   -4.509282    0.827977
      1.607      0.000    -33.000    0.000001    0.853463    0.578048    0.768098   -1.071416    0.290640    0.530635    0.410110   -6.033838  -18.431728    0.026572  -10.442821    1.159765   -6.517521   -0.897536   -4.590372    0.726966
      1.607      0.000    -35.000    0.000001    0.961604    0.348606    0.034511   -2.643513    0.096083    0.287801   -0.731088   -5.947760  -19.708020   -0.567035  -12.514182    0.086859   -6.929929   -1.007902   -4.504295    0.835108
      1.607      0.000    -37.000    0.000000    0.979518    0.364095    0.007396   -2.744522   -0.000114    0.300774   -0.814599   -5.932324  -19.966624   -0.613559  -12.537205    0.031745   -7.124697   -1.070609   -4.488858    0.853022
      1.607      0.000    -39.000    0.000000    0.956589    0.324459    0.002574   -2.678849   -0.000024    0.264294   -0.751528   -5.960759  -19.990312   -0.577592  -12.627331    0.051921   -7.115149   -1.079077   -4.517293    0.830093
      2.953      0.000     -1.000   -0.000001    0.424323   -0.744297   -0.003812   -1.582596    0.000002   -0.762006    0.397695   -5.271225  -17.480425    0.027346  -15.666498    0.529344   -6.889055   -0.872199   -3.827759    0.297826
      2.953      0.000     -3.000    0.000000    0.459661   -0.665899    0.022332   -1.632170    0.000033   -0.685035    0.338628   -5.268603  -17.517992   -0.000083  -15.417521    0.527225   -6.907236   -0.871391   -3.825137    0.333165
      2.953      0.000     -5.000    0.000000    0.956843    0.915813    0.065323   -0.972432   -0.000001    0.851282    0.359450   -9.523559  -27.773406   -0.000321   -9.154858    0.464670   -7.119398   -2.147901   -8.080093    0.830347
      2.953      0.000     -7.000    0.000000    0.964302    0.938795    0.103861   -0.949892   -0.000002    0.874292    0.373876   -9.488934  -27.661135   -0.000526   -9.047501    0.499610   -7.118210   -2.137514   -8.045468    0.837806
      2.953      0.000     -9.000    0.000000    0.968034    0.483934    0.000759   -2.333542   -0.000002    0.419752   -0.547143   -6.781819  -21.807807   -0.466392  -11.786853    0.120501   -7.116693   -1.325380   -5.338353    0.841537
      2.953      0.000    -11.000    0.000000    0.975827    0.378413    0.001291   -2.699731   -0.000003    0.314102   -0.792423   -6.011925  -20.119287   -0.595954  -12.454005    0.041396   -7.116639   -1.094413   -4.568459    0.849330
      2.953      0.000    -13.000    0.000000    0.976967    0.349196    0.001474   -2.787300   -0.000004    0.285402   -0.847938   -5.830394  -19.718298   -0.627605  -12.625347    0.021692   -7.115096   -1.039954   -4.386928    0.850471
      2.953      0.000    -15.000    0.000000    0.979533    0.344982    0.001575   -2.815071   -0.000005    0.281215   -0.866368   -5.788695  -19.630914   -0.639299  -12.660710    0.013878   -7.115462   -1.027445   -4.345229    0.853037
      2.953      0.000    -17.000    0.000000    0.982540    0.353641    0.001657   -2.810624   -0.000007    0.289618   -0.864896   -5.819181  -19.705307   -0.639844  -12.625368    0.012833   -7.116991   -1.036592   -4.375715    0.856044
      2.953      0.000    -19.000    0.000000    0.977357    0.351165    0.001828   -2.773904   -0.000009    0.287968   -0.835142   -5.871720  -19.815032   -0.624064  -12.605020    0.022618   -7.116298   -1.052355   -4.428254    0.850861
      2.953      0.000    -21.000    0.000000    0.974159    0.349083    0.002056   -2.752408   -0.000013    0.286415   -0.817371   -5.901407  -19.877116   -0.614714  -12.595357    0.028460   -7.116039   -1.061264   -4.457941    0.847663
      2.953      0.000    -23.000    0.000000    0.976520    0.585907    0.411557   -2.058969   -0.000040    0.522956   -0.356384   -5.914870  -19.453561   -0.384531  -11.188585    0.559004   -7.118840   -1.065322   -4.471404    0.850024
      2.953      0.000    -25.000    0.000000    0.975439    0.850716    0.881992   -1.254183   -0.000038    0.787951    0.181630   -5.925654  -18.947775   -0.115176   -9.591904    1.172136   -7.119906   -1.068555   -4.482188    0.848942
      2.953      0.000    -27.000    0.000000    0.953708    0.717642    0.709628   -1.477686   -0.000031    0.657911    0.051204   -5.950493  -19.155099   -0.176553  -10.249424    0.972793   -7.110801   -1.076002   -4.507027    0.827211
      2.953      0.000    -29.000    0.000000    0.984459    0.372906    0.007338   -2.759514   -0.000199    0.308880   -0.829318   -5.928466  -19.962644   -0.622260  -12.516717    0.026340   -7.124860   -1.069511   -4.485000    0.857963
      2.953      0.000    -31.000    0.000000    0.963052    0.754114    0.747002   -1.440725    0.083111    0.693111    0.068887   -5.945937  -18.926228   -0.167997  -10.090838    1.011171   -6.953433   -1.016436   -4.502471    0.836555
      2.953      0.000    -33.000    0.000000    0.941018    0.774313    0.852184   -1.194404    0.239407    0.716283    0.254205   -5.963982  -18.449614   -0.067694   -9.827126    1.172073   -6.645396   -0.912442   -4.520516    0.814522
      2.953      0.000    -35.000    0.000001    0.968736    0.357385    0.028510   -2.675376    0.056345    0.295589   -0.758585   -5.942163  -19.811921   -0.582571  -12.507477    0.071139   -7.010950   -1.034040   -4.498698    0.842239
      2.953      0.000    -37.000    0.000001    0.971779    0.350485    0.006424   -2.723236    0.001183    0.288260   -0.793912   -5.937738  -19.959843   -0.601910  -12.568789    0.039001   -7.118296   -1.071326   -4.494272    0.845283
      2.953      0.000    -39.000    0.000000    0.965784    0.340046    0.002369   -2.706404   -0.000033    0.278609   -0.777732   -5.954474  -19.994479   -0.592327  -12.593362    0.041590   -7.118981   -1.077198   -4.511008    0.839288
      4.586      0.000     -1.000   -0.000001    0.424253   -0.744421   -0.003827   -1.582430    0.000002   -0.762128    0.397849   -5.271244  -17.480281    0.027416  -15.666816    0.529399   -6.888997   -0.872205   -3.827777    0.297757
      4.586      0.000     -3.000    0.000000    0.458024   -0.670787    0.019283   -1.633456    0.000029   -0.689850    0.339046   -5.267903  -17.516424   -0.000070  -15.436370    0.524803   -6.906333   -0.871183   -3.824437    0.331527
      4.586      0.000     -5.000    0.000000    0.957639    0.918485    0.065217   -0.971136   -0.000001    0.853817    0.359509   -9.531352  -27.792400   -0.000321   -9.144354    0.464483   -7.119812   -2.150239   -8.087886    0.831143
      4.586      0.000     -7.000    0.000000    0.964507    0.939463    0.103543   -0.949746   -0.000002    0.874910    0.373707   -9.491397  -27.667647   -0.000524   -9.045139    0.499277   -7.118448   -2.138253   -8.047931    0.838011
      4.586      0.000     -9.000    0.000000    0.967953    0.488977    0.000733   -2.318120   -0.000002    0.424782   -0.536939   -6.816029  -21.883155   -0.461149  -11.756488    0.123660   -7.116698   -1.335643   -5.372563    0.841456
      4.586      0.000    -11.000    0.000000    0.973130    0.375544    0.001303   -2.686910   -0.000003    0.311589   -0.781715   -6.024197  -20.141409   -0.589908  -12.454229    0.045406   -7.115689   -1.098094   -4.580731    0.846633
      4.586      0.000    -13.000    0.000000    0.980230    0.355051    0.001446   -2.796394   -0.000004    0.290772   -0.856920   -5.829274  -19.722076   -0.632635  -12.611680    0.018255   -7.116423   -1.039618   -4.385808    0.853734
      4.586      0.000    -15.000    0.000000    0.978003    0.342826    0.001580   -2.809422   -0.000004    0.279260   -0.861390   -5.791995  -19.635183   -0.636441  -12.664007    0.015830   -7.114841   -1.028434   -4.348529    0.851507
      4.586      0.000    -17.000    0.000000    0.976032    0.342865    0.001692   -2.790354   -0.000006    0.279762   -0.845805   -5.825637  -19.707306   -0.629001  -12.647940    0.020210   -7.114480   -1.038528   -4.382171    0.849535
      4.586      0.000    -19.000    0.000000    0.979727    0.354927    0.001801   -2.781922   -0.000009    0.291383   -0.842580   -5.867778  -19.810934   -0.628181  -12.597978    0.019823   -7.117280   -1.051172   -4.424312    0.853231
      4.586      0.000    -21.000    0.000000    0.972641    0.346537    0.002043   -2.748017   -0.000012    0.284074   -0.813232   -5.902134  -19.875385   -0.612353  -12.600968    0.030124   -7.115268   -1.061482   -4.458668    0.846145
      4.586      0.000    -23.000    0.000000    0.971891    0.604586    0.458465   -1.966081   -0.000066    0.542285   -0.290678   -5.917302  -19.395218   -0.350944  -11.046689    0.625021   -7.116294   -1.066069   -4.473836    0.845395
      4.586      0.000    -25.000    0.000000    0.967445    0.636384    0.526551   -1.832641   -0.000034    0.574736   -0.197201   -5.931750  -19.347468   -0.303086  -10.826200    0.719099   -7.116644   -1.070382   -4.488284    0.840949
      4.586      0.000    -27.000    0.000000    0.980203    0.363802    0.004627   -2.753258   -0.000070    0.300375   -0.821769   -5.927337  -19.952100   -0.617835  -12.544051    0.027220   -7.121888   -1.069083   -4.483871    0.853706
      4.586      0.000    -29.000    0.000000    0.976480    0.782976    0.757328   -1.464916   -0.000078    0.720089    0.040568   -5.933552  -19.110114   -0.185875  -10.004548    1.009612   -7.121120   -1.070953   -4.490086    0.849983
      4.586      0.000    -31.000    0.000001    0.974555    0.426652    0.133104   -2.516132    0.037790    0.364039   -0.657887   -5.936730  -19.733229   -0.533862  -12.129779    0.200635   -7.048097   -1.045398   -4.493265    0.848059
      4.586      0.000    -33.000    0.000000    0.929051    0.788970    0.912557   -1.056667    0.192826    0.732513    0.355166   -5.973075  -18.482477   -0.016490   -9.662129    1.263826   -6.728837   -0.947777   -4.529609    0.802555
      4.586      0.000    -35.000    0.000000    0.963179    0.423934    0.162431   -2.432101    0.032908    0.362912   -0.592070   -5.946020  -19.711494   -0.498854  -12.072296    0.251305   -7.053435   -1.051603   -4.502554    0.836683
      4.586      0.000    -37.000    0.000000    0.944770    0.618718    0.562172   -1.700483    0.009942    0.560196   -0.089194   -5.957825  -19.302502   -0.244633  -10.784856    0.790954   -7.089744   -1.071221   -4.514358    0.818274
      4.586      0.000    -39.000    0.000000    0.980831    0.365845    0.002089   -2.751251   -0.000039    0.302274   -0.820730   -5.944412  -20.000069   -0.616669  -12.536384    0.024855   -7.124580   -1.074183   -4.500946    0.854335
      6.571      0.000     -1.000   -0.000001    0.424134   -0.744638   -0.003853   -1.582154    0.000002   -0.762340    0.398110   -5.271256  -17.479993    0.027534  -15.667382    0.529492   -6.888899   -0.872209   -3.827789    0.297638
      6.571      0.000     -3.000    0.000000    0.455569   -0.678138    0.014704   -1.635408    0.000025   -0.697092    0.339671   -5.266838  -17.514150   -0.000049  -15.464749    0.521154   -6.905015   -0.870867   -3.823372    0.329073
      6.571      0.000     -5.000    0.000000    0.957155    0.916931    0.064906   -0.972329   -0.000001    0.852297    0.358944   -9.526359  -27.781010   -0.000319   -9.151110    0.464281   -7.119748   -2.148741   -8.082893    0.830659
      6.571      0.000     -7.000    0.000000    0.963217    0.935235    0.102814   -0.952408   -0.000002    0.870835    0.372871   -9.479858  -27.640709   -0.000519   -9.062666    0.498781   -7.118042   -2.134792   -8.036392    0.836721
      6.571      0.000     -9.000    0.000000    0.967491    0.502646    0.000662   -2.274050   -0.000002    0.438466   -0.507440   -6.912702  -22.095892   -0.446033  -11.672320    0.132746   -7.116690   -1.364645   -5.469236    0.840995
      6.571      0.000    -11.000    0.000000    0.975361    0.381139    0.001277   -2.688742   -0.000003    0.316818   -0.785098   -6.032873  -20.165191   -0.591772  -12.435876    0.044006   -7.116784   -1.100697   -4.589407    0.848865
      6.571      0.000    -13.000    0.000000    0.977669    0.352151    0.001457   -2.784854   -0.000004    0.288197   -0.847225   -5.839286  -19.739697   -0.627050  -12.613136    0.021964   -7.115628   -1.042621   -4.395820    0.851172
      6.571      0.000    -15.000    0.000000    0.979481    0.345571    0.001564   -2.813557   -0.000005    0.281768   -0.865584   -5.791186  -19.636115   -0.638699  -12.657567    0.014319   -7.115426   -1.028192   -4.347720    0.852985
      6.571      0.000    -17.000    0.000000    0.978476    0.346676    0.001666   -2.798904   -0.000006    0.283207   -0.853695   -5.820819  -19.701476   -0.633319  -12.641199    0.017290   -7.115525   -1.037082   -4.377353    0.851979
      6.571      0.000    -19.000    0.000000    0.981081    0.356825    0.001773   -2.787429   -0.000009    0.293076   -0.847514   -5.863373  -19.803523   -0.630872  -12.595582    0.018056   -7.117720   -1.049851   -4.419907    0.854584
      6.571      0.000    -21.000    0.000000    0.979921    0.358438    0.002434   -2.771344   -0.000014    0.294937   -0.835094   -5.891529  -19.865254   -0.624640  -12.576875    0.022198   -7.118129   -1.058301   -4.448063    0.853424
      6.571      0.000    -23.000    0.000000    0.975802    0.684579    0.589770   -1.757556   -0.000018    0.621720   -0.154965   -5.908980  -19.236725   -0.283728  -10.592107    0.790863   -7.118118   -1.063539   -4.465514    0.849306
      6.571      0.000    -25.000    0.000000    0.972017    0.661899    0.558853   -1.793510   -0.000037    0.599608   -0.175175   -5.923888  -19.300933   -0.293014  -10.702870    0.755696   -7.117950   -1.068025   -4.480422    0.845521
      6.571      0.000    -27.000    0.000000    0.954770    0.568155    0.443438   -1.934408   -0.000032    0.508275   -0.254078   -5.944219  -19.445449   -0.329258  -11.153200    0.625228   -7.111771   -1.074121   -4.500752    0.828274
      6.571      0.000    -29.000    0.000000    0.927514    0.573489    0.533620   -1.697094    0.005171    0.517236   -0.072533   -5.970918  -19.342160   -0.233365  -10.945050    0.772941   -7.092049   -1.078488   -4.527452    0.801018
      6.571      0.000    -31.000    0.000000    0.969458    0.843757    0.887078   -1.223522    0.022231    0.781861    0.208249   -5.939515  -18.916191   -0.099964   -9.593964    1.185850   -7.077007   -1.057125   -4.496049    0.842962
      6.571      0.000    -33.000    0.000000    0.952128    0.868517    0.983161   -1.007647    0.114383    0.809008    0.367394   -5.953844  -18.584767   -0.016071   -9.333679    1.329997   -6.889133   -0.996918   -4.510377    0.825632
      6.571      0.000    -35.000    0.000000    0.966875    0.841414    0.890523   -1.209752    0.016370    0.779878    0.219609   -5.941979  -18.926972   -0.093869   -9.591280    1.193216   -7.087504   -1.061968   -4.498513    0.840378
      6.571      0.000    -37.000    0.000000    0.931322    0.449681    0.302982   -2.099265    0.001691    0.392926   -0.343843   -5.968338  -19.613147   -0.369638  -11.712496    0.469076   -7.100622   -1.080151   -4.524872    0.804825
      6.571      0.000    -39.000    0.000000    0.965206    0.569442    0.408593   -2.013828   -0.000046    0.508059   -0.315644   -5.959770  -19.546418   -0.361017  -11.213662    0.570619   -7.118944   -1.078796   -4.516304    0.838709
      8.982      0.000     -1.000   -0.000001    0.423963   -0.744935   -0.003893   -1.581734    0.000002   -0.762631    0.398493   -5.271318  -17.479665    0.027714  -15.668129    0.529631   -6.888753   -0.872227   -3.827852    0.297467
      8.982      0.000     -3.000    0.000000    0.452064   -0.688667    0.007895   -1.638356    0.000022   -0.707470    0.340429   -5.265852  -17.512579   -0.000019  -15.505580    0.515670   -6.903219   -0.870573   -3.822386    0.325567
      8.982      0.000     -5.000    0.000000    0.957042    0.916610    0.064578   -0.973080   -0.000001    0.851932    0.358244   -9.524306  -27.777147   -0.000317   -9.153251    0.464021   -7.119985   -2.148126   -8.080840    0.830546
      8.982      0.000     -7.000    0.000000    0.962680    0.933510    0.101996   -0.953911   -0.000002    0.869131    0.372048   -9.475467  -27.631384   -0.000515   -9.070430    0.498107   -7.118089   -2.133474   -8.032001    0.836184
      8.982      0.000     -9.000    0.000000    0.967237    0.534658    0.000503   -2.176854   -0.000002    0.470439   -0.442806   -7.131117  -22.578180   -0.413228  -11.479822    0.152290   -7.116981   -1.430170   -5.687651    0.840740
      8.982      0.000    -11.000    0.000000    0.973888    0.382270    0.001269   -2.674453   -0.000003    0.318090   -0.774718   -6.055306  -20.211943   -0.585933  -12.420729    0.047787   -7.116328   -1.107427   -4.611840    0.847392
      8.982      0.000    -13.000    0.000000    0.978192    0.354715    0.001441   -2.782192   -0.000004    0.290627   -0.846230   -5.847602  -19.759278   -0.626339  -12.602123    0.022373   -7.116011   -1.045116   -4.404136    0.851696
      8.982      0.000    -15.000    0.000000    0.979001    0.345132    0.001558   -2.811473   -0.000004    0.281359   -0.863982   -5.792438  -19.638220   -0.637596  -12.657714    0.015069   -7.115387   -1.028567   -4.348972    0.852505
      8.982      0.000    -17.000    0.000000    0.980456    0.349092    0.001641   -2.807992   -0.000006    0.285320   -0.861585   -5.811934  -19.685570   -0.637553  -12.639886    0.014511   -7.116304   -1.034417   -4.368467    0.853960
      8.982      0.000    -19.000    0.000000    0.975132    0.345957    0.001784   -2.772368   -0.000008    0.283042   -0.832514   -5.861480  -19.786870   -0.622278  -12.622469    0.024127   -7.114924   -1.049282   -4.418014    0.848636
      8.982      0.000    -21.000    0.000000    0.982581    0.379953    0.034393   -2.728643   -0.000014    0.316062   -0.809034   -5.881431  -19.811278   -0.612123  -12.465242    0.060141   -7.118953   -1.055272   -4.437965    0.856085
      8.982      0.000    -23.000    0.000000    0.980652    0.359985    0.002137   -2.771341   -0.000020    0.296428   -0.835252   -5.897787  -19.882942   -0.624930  -12.571404    0.021359   -7.119181   -1.060183   -4.454321    0.854156
      8.982      0.000    -25.000    0.000000    0.962268    0.655670    0.578934   -1.733865   -0.000029    0.594737   -0.127236   -5.923193  -19.256342   -0.267383  -10.677234    0.791864   -7.113333   -1.067811   -4.479727    0.835772
      8.982      0.000    -27.000    0.000000    0.978997    0.602024    0.432332   -2.028528   -0.000058    0.538762   -0.337484   -5.919508  -19.450604   -0.375331  -11.106905    0.583544   -7.121921   -1.066726   -4.476041    0.852501
      8.982      0.000    -29.000    0.000000    0.968350    0.862430    0.924399   -1.160214   -0.000059    0.800685    0.250862   -5.933284  -18.907336   -0.079044   -9.475025    1.235052   -7.118639   -1.070859   -4.489817    0.841854
      8.982      0.000    -31.000    0.000000    0.944115    0.845210    0.967881   -1.015214    0.017461    0.786793    0.368386   -5.948679  -18.804882   -0.015716   -9.421356    1.317939   -7.074804   -1.063214   -4.505213    0.817619
      8.982      0.000    -33.000    0.000001    0.888334    0.667437    0.818392   -1.098575    0.080030    0.616063    0.359097   -5.995436  -18.818923   -0.010399  -10.130128    1.185977   -6.928576   -1.033442   -4.551970    0.761838
      8.982      0.000    -35.000    0.000000    0.864146    0.590872    0.759694   -1.133560    0.036885    0.542325    0.355430   -5.995489  -18.946242   -0.008900  -10.434552    1.134832   -7.004439   -1.063660   -4.552023    0.737650
      8.982      0.000    -37.000    0.000000    0.969483    0.834208    0.871743   -1.252435   -0.000041    0.772291    0.188914   -5.933018  -18.974755   -0.109673   -9.651497    1.165335   -7.121528   -1.070767   -4.489552    0.842987
      8.982      0.000    -39.000    0.000000    0.973459    0.937926    1.045463   -0.974073   -0.000039    0.875419    0.370839   -5.920055  -18.756753   -0.019348   -9.055512    1.385963   -7.122905   -1.066877   -4.476589    0.846962
     11.910      0.000     -1.000   -0.000001    0.423706   -0.745388   -0.003950   -1.581110    0.000002   -0.763074    0.399067   -5.271400  -17.479147    0.027979  -15.669275    0.529837   -6.888533   -0.872252   -3.827934    0.297209
     11.910      0.000     -3.000    0.000000    0.446851   -0.701207    0.002458   -1.633779    0.000020   -0.719795    0.347387   -5.266170  -17.509137    0.003166  -15.548063    0.513894   -6.900706   -0.870670   -3.822703    0.320355
     11.910      0.000     -5.000    0.000000    0.955568    0.911865    0.063956   -0.976554   -0.000001    0.847307    0.356715   -9.508491  -27.740609   -0.000314   -9.173637    0.463709   -7.119707   -2.143381   -8.065025    0.829072