
          ---- Reactive Surface Areas (m^2/ kg H2O) vs. grid blocks at specified times ----

 
VARIABLES =X,       Y,      Z,     Sl,      A_fmr,     A_Factor,  quartz     ,k-feldspar ,smectite-ca,muscovite  ,siderite-2 ,albite~low ,kaolinite  ,dolomite-2 ,chlorite   ,dawsonite  ,oligoclase ,illite     ,hematite   ,ankerite-2 ,magnesite  ,chalcedony ,
ZONE T= "0.499669E+02 yr"  F=POINT
      0.500      0.000     -1.000 0.41731E+00 0.10000E+01 0.38475E-02  0.1122E-01  0.5074E-03  0.4584E+00  0.4520E-02  0.1497E+00  0.1194E-04  0.1186E-04  0.1263E-04  0.1306E-04  0.1139E-04  0.1200E-04  0.1234E-04  0.1944E-04  0.1343E-04  0.1304E-04  0.1202E-04
      0.500      0.000     -3.000 0.35120E+00 0.10000E+01 0.38413E-02  0.1120E-01  0.5066E-03  0.4577E+00  0.4513E-02  0.1494E+00  0.1192E-04  0.1184E-04  0.1261E-04  0.1304E-04  0.1138E-04  0.1198E-04  0.1232E-04  0.1941E-04  0.1341E-04  0.1302E-04  0.1200E-04
      0.500      0.000     -5.000 0.51241E-02 0.10000E+01 0.33441E-02  0.1044E-01  0.4722E-03  0.4267E+00  0.4207E-02  0.1393E+00  0.1111E-04  0.1104E-04  0.1176E-04  0.1216E-04  0.1061E-04  0.1117E-04  0.1149E-04  0.1810E-04  0.1250E-04  0.1214E-04  0.1119E-04
      0.500      0.000     -7.000 0.00000E+00 0.10000E+01 0.00000E+00  0.1042E-01  0.4715E-03  0.4260E+00  0.4200E-02  0.1391E+00  0.1110E-04  0.1103E-04  0.1174E-04  0.1214E-04  0.1059E-04  0.1115E-04  0.1147E-04  0.1807E-04  0.1248E-04  0.1212E-04  0.1117E-04
      0.500      0.000     -9.000 0.00000E+00 0.10000E+01 0.00000E+00  0.1041E-01  0.4706E-03  0.4252E+00  0.4193E-02  0.1388E+00  0.1108E-04  0.1101E-04  0.1172E-04  0.1212E-04  0.1057E-04  0.1113E-04  0.1145E-04  0.1804E-04  0.1246E-04  0.1210E-04  0.1115E-04
      0.500      0.000    -11.000 0.00000E+00 0.10000E+01 0.00000E+00  0.1039E-01  0.4698E-03  0.4244E+00  0.4185E-02  0.1386E+00  0.1105E-04  0.1099E-04  0.1170E-04  0.1210E-04  0.1055E-04  0.1111E-04  0.1143E-04  0.1800E-04  0.1244E-04  0.1207E-04  0.1113E-04
      0.500      0.000    -13.000 0.00000E+00 0.10000E+01 0.00000E+00  0.1037E-01  0.4688E-03  0.4236E+00  0.4177E-02  0.1383E+00  0.1103E-04  0.1096E-04  0.1167E-04  0.1207E-04  0.1053E-04  0.1109E-04  0.1141E-04  0.1797E-04  0.1241E-04  0.1205E-04  0.1111E-04
      0.500      0.000    -15.000 0.00000E+00 0.10000E+01 0.00000E+00  0.1037E-01  0.4693E-03  0.4240E+00  0.4180E-02  0.1384E+00  0.1104E-04  0.1097E-04  0.1168E-04  0.1208E-04  0.1054E-04  0.1110E-04  0.1142E-04  0.1798E-04  0.1242E-04  0.1206E-04  0.1112E-04
      0.500      0.000    -17.000 0.00000E+00 0.10000E+01 0.00000E+00  0.1038E-01  0.4694E-03  0.4241E+00  0.4181E-02  0.1385E+00  0.1105E-04  0.1098E-04  0.1169E-04  0.1209E-04  0.1054E-04  0.1110E-04  0.1142E-04  0.1799E-04  0.1243E-04  0.1206E-04  0.1112E-04
      0.500      0.000    -19.000 0.00000E+00 0.10000E+01 0.00000E+00  0.1040E-01  0.4705E-03  0.4251E+00  0.4191E-02  0.1388E+00  0.1107E-04  0.1100E-04  0.1171E-04  0.1212E-04  0.1057E-04  0.1113E-04  0.1145E-04  0.1803E-04  0.1246E-04  0.1209E-04  0.1115E-04
      0.500      0.000    -21.000 0.00000E+00 0.10000E+01 0.00000E+00  0.1043E-01  0.4717E-03  0.4262E+00  0.4202E-02  0.1391E+00  0.1110E-04  0.1103E-04  0.1174E-04  0.1215E-04  0.1059E-04  0.1115E-04  0.1147E-04  0.1808E-04  0.1249E-04  0.1212E-04  0.1117E-04
      0.500      0.000    -23.000 0.00000E+00 0.10000E+01 0.00000E+00  0.1048E-01  0.4741E-03  0.4284E+00  0.4223E-02  0.1399E+00  0.1116E-04  0.1109E-04  0.1180E-04  0.1221E-04  0.1065E-04  0.1121E-04  0.1153E-04  0.1817E-04  0.1255E-04  0.1218E-04  0.1123E-04
      0.500      0.000    -25.000 0.00000E+00 0.10000E+01 0.00000E+00  0.1043E-01  0.4719E-03  0.4264E+00  0.4204E-02  0.1392E+00  0.1111E-04  0.1104E-04  0.1175E-04  0.1215E-04  0.1060E-04  0.1116E-04  0.1148E-04  0.1809E-04  0.1249E-04  0.1213E-04  0.1118E-04
      0.500      0.000    -27.000 0.00000E+00 0.10000E+01 0.00000E+00  0.1049E-01  0.4745E-03  0.4288E+00  0.4227E-02  0.1400E+00  0.1117E-04  0.1110E-04  0.1181E-04  0.1222E-04  0.1066E-04  0.1122E-04  0.1154E-04  0.1818E-04  0.1256E-04  0.1219E-04  0.1124E-04
      0.500      0.000    -29.000 0.00000E+00 0.10000E+01 0.00000E+00  0.1043E-01  0.4716E-03  0.4261E+00  0.4201E-02  0.1391E+00  0.1110E-04  0.1103E-04  0.1174E-04  0.1214E-04  0.1059E-04  0.1115E-04  0.1147E-04  0.1807E-04  0.1248E-04  0.1212E-04  0.1117E-04
      0.500      0.000    -31.000 0.00000E+00 0.10000E+01 0.00000E+00  0.1048E-01  0.4740E-03  0.4283E+00  0.4223E-02  0.1398E+00  0.1115E-04  0.1108E-04  0.1180E-04  0.1221E-04  0.1065E-04  0.1121E-04  0.1153E-04  0.1817E-04  0.1255E-04  0.1218E-04  0.1123E-04
      0.500      0.000    -33.000 0.00000E+00 0.10000E+01 0.00000E+00  0.1059E-01  0.4790E-03  0.4328E+00  0.4267E-02  0.1413E+00  0.1127E-04  0.1120E-04  0.1192E-04  0.1233E-04  0.1076E-04  0.1133E-04  0.1165E-04  0.1836E-04  0.1268E-04  0.1231E-04  0.1135E-04
      0.500      0.000    -35.000 0.00000E+00 0.10000E+01 0.00000E+00  0.1047E-01  0.4737E-03  0.4280E+00  0.4220E-02  0.1397E+00  0.1115E-04  0.1108E-04  0.1179E-04  0.1220E-04  0.1064E-04  0.1120E-04  0.1152E-04  0.1815E-04  0.1254E-04  0.1217E-04  0.1122E-04
      0.500      0.000    -37.000 0.00000E+00 0.10000E+01 0.00000E+00  0.1045E-01  0.4729E-03  0.4272E+00  0.4212E-02  0.1395E+00  0.1113E-04  0.1106E-04  0.1177E-04  0.1218E-04  0.1062E-04  0.1118E-04  0.1150E-04  0.1812E-04  0.1252E-04  0.1215E-04  0.1120E-04
      0.500      0.000    -39.000 0.00000E+00 0.10000E+01 0.00000E+00  0.1047E-01  0.4734E-03  0.4278E+00  0.4218E-02  0.1397E+00  0.1114E-04  0.1107E-04  0.1179E-04  0.1219E-04  0.1063E-04  0.1120E-04  0.1152E-04  0.1814E-04  0.1253E-04  0.1217E-04  0.1121E-04
      1.607      0.000     -1.000 0.41738E+00 0.10000E+01 0.38475E-02  0.1122E-01  0.5074E-03  0.4584E+00  0.4520E-02  0.1497E+00  0.1194E-04  0.1186E-04  0.1263E-04  0.1306E-04  0.1139E-04  0.1200E-04  0.1234E-04  0.1944E-04  0.1343E-04  0.1304E-04  0.1202E-04
      1.607      0.000     -3.000 0.35221E+00 0.10000E+01 0.38414E-02  0.1120E-01  0.5066E-03  0.4577E+00  0.4513E-02  0.1494E+00  0.1192E-04  0.1184E-04  0.1261E-04  0.1304E-04  0.1138E-04  0.1198E-04  0.1232E-04  0.1941E-04  0.1341E-04  0.1302E-04  0.1200E-04
      1.607      0.000     -5.000 0.58276E-02 0.10000E+01 0.33441E-02  0.1044E-01  0.4722E-03  0.4267E+00  0.4207E-02  0.1393E+00  0.1111E-04  0.1104E-04  0.1176E-04  0.1216E-04  0.1061E-04  0.1117E-04  0.1149E-04  0.1810E-04  0.1250E-04  0.1214E-04  0.1119E-04
      1.607      0.000     -7.000 0.00000E+00 0.10000E+01 0.00000E+00  0.1042E-01  0.4714E-03  0.4260E+00  0.4200E-02  0.1391E+00  0.1109E-04  0.1103E-04  0.1174E-04  0.1214E-04  0.1059E-04  0.1115E-04  0.1147E-04  0.1807E-04  0.1248E-04  0.1212E-04  0.1117E-04
      1.607      0.000     -9.000 0.00000E+00 0.10000E+01 0.00000E+00  0.1040E-01  0.4705E-03  0.4251E+00  0.4191E-02  0.1388E+00  0.1107E-04  0.1100E-04  0.1171E-04  0.1212E-04  0.1057E-04  0.1113E-04  0.1145E-04  0.1803E-04  0.1246E-04  0.1209E-04  0.1115E-04
      1.607      0.000    -11.000 0.00000E+00 0.10000E+01 0.00000E+00  0.1039E-01  0.4698E-03  0.4245E+00  0.4185E-02  0.1386E+00  0.1106E-04  0.1099E-04  0.1170E-04  0.1210E-04  0.1055E-04  0.1111E-04  0.1143E-04  0.1801E-04  0.1244E-04  0.1207E-04  0.1113E-04
      1.607      0.000    -13.000 0.00000E+00 0.10000E+01 0.00000E+00  0.1037E-01  0.4692E-03  0.4239E+00  0.4180E-02  0.1384E+00  0.1104E-04  0.1097E-04  0.1168E-04  0.1208E-04  0.1054E-04  0.1110E-04  0.1141E-04  0.1798E-04  0.1242E-04  0.1206E-04  0.1111E-04
      1.607      0.000    -15.000 0.00000E+00 0.10000E+01 0.00000E+00  0.1038E-01  0.4694E-03  0.4241E+00  0.4182E-02  0.1385E+00  0.1105E-04  0.1098E-04  0.1169E-04  0.1209E-04  0.1054E-04  0.1110E-04  0.1142E-04  0.1799E-04  0.1243E-04  0.1206E-04  0.1112E-04
      1.607      0.000    -17.000 0.00000E+00 0.10000E+01 0.00000E+00  0.1039E-01  0.4699E-03  0.4246E+00  0.4186E-02  0.1386E+00  0.1106E-04  0.1099E-04  0.1170E-04  0.1210E-04  0.1056E-04  0.1111E-04  0.1143E-04  0.1801E-04  0.1244E-04  0.1208E-04  0.1113E-04
      1.607      0.000    -19.000 0.00000E+00 0.10000E+01 0.00000E+00  0.1039E-01  0.4701E-03  0.4248E+00  0.4188E-02  0.1387E+00  0.1106E-04  0.1100E-04  0.1170E-04  0.1211E-04  0.1056E-04  0.1112E-04  0.1144E-04  0.1802E-04  0.1245E-04  0.1208E-04  0.1114E-04
      1.607      0.000    -21.000 0.00000E+00 0.10000E+01 0.00000E+00  0.1045E-01  0.4725E-03  0.4269E+00  0.4209E-02  0.1394E+00  0.1112E-04  0.1105E-04  0.1176E-04  0.1217E-04  0.1061E-04  0.1117E-04  0.1150E-04  0.1811E-04  0.1251E-04  0.1214E-04  0.1119E-04
      1.607      0.000    -23.000 0.00000E+00 0.10000E+01 0.00000E+00  0.1043E-01  0.4717E-03  0.4262E+00  0.4203E-02  0.1392E+00  0.1110E-04  0.1103E-04  0.1174E-04  0.1215E-04  0.1060E-04  0.1116E-04  0.1148E-04  0.1808E-04  0.1249E-04  0.1212E-04  0.1117E-04
      1.607      0.000    -25.000 0.00000E+00 0.10000E+01 0.00000E+00  0.1045E-01  0.4728E-03  0.4272E+00  0.4212E-02  0.1395E+00  0.1112E-04  0.1106E-04  0.1177E-04  0.1217E-04  0.1062E-04  0.1118E-04  0.1150E-04  0.1812E-04  0.1252E-04  0.1215E-04  0.1120E-04
      1.607      0.000    -27.000 0.00000E+00 0.10000E+01 0.00000E+00  0.1046E-01  0.4729E-03  0.4273E+00  0.4213E-02  0.1395E+00  0.1113E-04  0.1106E-04  0.1177E-04  0.1218E-04  0.1062E-04  0.1118E-04  0.1150E-04  0.1812E-04  0.1252E-04  0.1215E-04  0.1120E-04
      1.607      0.000    -29.000 0.00000E+00 0.10000E+01 0.00000E+00  0.1044E-01  0.4722E-03  0.4267E+00  0.4207E-02  0.1393E+00  0.1111E-04  0.1104E-04  0.1176E-04  0.1216E-04  0.1061E-04  0.1117E-04  0.1149E-04  0.1810E-04  0.1250E-04  0.1214E-04  0.1119E-04
      1.607      0.000    -31.000 0.00000E+00 0.10000E+01 0.00000E+00  0.1047E-01  0.4736E-03  0.4279E+00  0.4219E-02  0.1397E+00  0.1115E-04  0.1108E-04  0.1179E-04  0.1220E-04  0.1064E-04  0.1120E-04  0.1152E-04  0.1815E-04  0.1254E-04  0.1217E-04  0.1122E-04
      1.607      0.000    -33.000 0.00000E+00 0.10000E+01 0.00000E+00  0.1067E-01  0.4825E-03  0.4360E+00  0.4299E-02  0.1423E+00  0.1135E-04  0.1128E-04  0.1201E-04  0.1242E-04  0.1084E-04  0.1141E-04  0.1174E-04  0.1849E-04  0.1277E-04  0.1240E-04  0.1143E-04
      1.607      0.000    -35.000 0.00000E+00 0.10000E+01 0.00000E+00  0.1046E-01  0.4730E-03  0.4274E+00  0.4214E-02  0.1395E+00  0.1113E-04  0.1106E-04  0.1178E-04  0.1218E-04  0.1062E-04  0.1119E-04  0.1151E-04  0.1813E-04  0.1252E-04  0.1216E-04  0.1120E-04
      1.607      0.000    -37.000 0.00000E+00 0.10000E+01 0.00000E+00  0.1042E-01  0.4714E-03  0.4259E+00  0.4199E-02  0.1391E+00  0.1109E-04  0.1102E-04  0.1173E-04  0.1214E-04  0.1059E-04  0.1115E-04  0.1147E-04  0.1806E-04  0.1248E-04  0.1211E-04  0.1117E-04
      1.607      0.000    -39.000 0.00000E+00 0.10000E+01 0.00000E+00  0.1051E-01  0.4755E-03  0.4296E+00  0.4236E-02  0.1403E+00  0.1119E-04  0.1112E-04  0.1184E-04  0.1224E-04  0.1068E-04  0.1124E-04  0.1157E-04  0.1822E-04  0.1259E-04  0.1222E-04  0.1126E-04
      2.953      0.000     -1.000 0.41756E+00 0.10000E+01 0.38475E-02  0.1122E-01  0.5074E-03  0.4584E+00  0.4520E-02  0.1497E+00  0.1194E-04  0.1186E-04  0.1263E-04  0.1306E-04  0.1139E-04  0.1200E-04  0.1234E-04  0.1944E-04  0.1343E-04  0.1304E-04  0.1202E-04
      2.953      0.000     -3.000 0.35451E+00 0.10000E+01 0.38415E-02  0.1120E-01  0.5066E-03  0.4577E+00  0.4513E-02  0.1494E+00  0.1192E-04  0.1185E-04  0.1261E-04  0.1304E-04  0.1138E-04  0.1198E-04  0.1232E-04  0.1941E-04  0.1341E-04  0.1302E-04  0.1200E-04
      2.953      0.000     -5.000 0.78163E-02 0.10000E+01 0.33441E-02  0.1044E-01  0.4723E-03  0.4268E+00  0.4208E-02  0.1393E+00  0.1112E-04  0.1105E-04  0.1176E-04  0.1216E-04  0.1061E-04  0.1117E-04  0.1149E-04  0.1810E-04  0.1250E-04  0.1214E-04  0.1119E-04
      2.953      0.000     -7.000 0.00000E+00 0.10000E+01 0.00000E+00  0.1042E-01  0.4714E-03  0.4259E+00  0.4199E-02  0.1391E+00  0.1109E-04  0.1102E-04  0.1174E-04  0.1214E-04  0.1059E-04  0.1115E-04  0.1147E-04  0.1807E-04  0.1248E-04  0.1211E-04  0.1117E-04
      2.953      0.000     -9.000 0.00000E+00 0.10000E+01 0.00000E+00  0.1041E-01  0.4707E-03  0.4253E+00  0.4193E-02  0.1389E+00  0.1108E-04  0.1101E-04  0.1172E-04  0.1212E-04  0.1057E-04  0.1113E-04  0.1145E-04  0.1804E-04  0.1246E-04  0.1210E-04  0.1115E-04
      2.953      0.000    -11.000 0.00000E+00 0.10000E+01 0.00000E+00  0.1038E-01  0.4697E-03  0.4244E+00  0.4184E-02  0.1386E+00  0.1105E-04  0.1098E-04  0.1169E-04  0.1209E-04  0.1055E-04  0.1111E-04  0.1143E-04  0.1800E-04  0.1243E-04  0.1207E-04  0.1113E-04
      2.953      0.000    -13.000 0.00000E+00 0.10000E+01 0.00000E+00  0.1038E-01  0.4693E-03  0.4240E+00  0.4181E-02  0.1384E+00  0.1104E-04  0.1098E-04  0.1168E-04  0.1209E-04  0.1054E-04  0.1110E-04  0.1142E-04  0.1799E-04  0.1242E-04  0.1206E-04  0.1112E-04
      2.953      0.000    -15.000 0.00000E+00 0.10000E+01 0.00000E+00  0.1037E-01  0.4691E-03  0.4239E+00  0.4179E-02  0.1384E+00  0.1104E-04  0.1097E-04  0.1168E-04  0.1208E-04  0.1054E-04  0.1109E-04  0.1141E-04  0.1798E-04  0.1242E-04  0.1206E-04  0.1111E-04
      2.953      0.000    -17.000 0.00000E+00 0.10000E+01 0.00000E+00  0.1038E-01  0.4695E-03  0.4242E+00  0.4182E-02  0.1385E+00  0.1105E-04  0.1098E-04  0.1169E-04  0.1209E-04  0.1055E-04  0.1110E-04  0.1142E-04  0.1799E-04  0.1243E-04  0.1207E-04  0.1112E-04
      2.953      0.000    -19.000 0.00000E+00 0.10000E+01 0.00000E+00  0.1041E-01  0.4709E-03  0.4255E+00  0.4195E-02  0.1389E+00  0.1108E-04  0.1101E-04  0.1172E-04  0.1213E-04  0.1058E-04  0.1114E-04  0.1146E-04  0.1805E-04  0.1247E-04  0.1210E-04  0.1115E-04
      2.953      0.000    -21.000 0.00000E+00 0.10000E+01 0.00000E+00  0.1043E-01  0.4719E-03  0.4264E+00  0.4204E-02  0.1392E+00  0.1110E-04  0.1104E-04  0.1175E-04  0.1215E-04  0.1060E-04  0.1116E-04  0.1148E-04  0.1808E-04  0.1249E-04  0.1213E-04  0.1118E-04
      2.953      0.000    -23.000 0.00000E+00 0.10000E+01 0.00000E+00  0.1044E-01  0.4720E-03  0.4265E+00  0.4205E-02  0.1393E+00  0.1111E-04  0.1104E-04  0.1175E-04  0.1215E-04  0.1060E-04  0.1116E-04  0.1148E-04  0.1809E-04  0.1250E-04  0.1213E-04  0.1118E-04
      2.953      0.000    -25.000 0.00000E+00 0.10000E+01 0.00000E+00  0.1044E-01  0.4724E-03  0.4268E+00  0.4208E-02  0.1394E+00  0.1112E-04  0.1105E-04  0.1176E-04  0.1216E-04  0.1061E-04  0.1117E-04  0.1149E-04  0.1810E-04  0.1250E-04  0.1214E-04  0.1119E-04
      2.953      0.000    -27.000 0.00000E+00 0.10000E+01 0.00000E+00  0.1049E-01  0.4746E-03  0.4288E+00  0.4228E-02  0.1400E+00  0.1117E-04  0.1110E-04  0.1181E-04  0.1222E-04  0.1066E-04  0.1122E-04  0.1155E-04  0.1819E-04  0.1256E-04  0.1220E-04  0.1124E-04
      2.953      0.000    -29.000 0.00000E+00 0.10000E+01 0.00000E+00  0.1042E-01  0.4714E-03  0.4260E+00  0.4200E-02  0.1391E+00  0.1109E-04  0.1102E-04  0.1174E-04  0.1214E-04  0.1059E-04  0.1115E-04  0.1147E-04  0.1807E-04  0.1248E-04  0.1212E-04  0.1117E-04
      2.953      0.000    -31.000 0.00000E+00 0.10000E+01 0.00000E+00  0.1047E-01  0.4733E-03  0.4277E+00  0.4217E-02  0.1396E+00  0.1114E-04  0.1107E-04  0.1178E-04  0.1219E-04  0.1063E-04  0.1119E-04  0.1151E-04  0.1814E-04  0.1253E-04  0.1216E-04  0.1121E-04
      2.953      0.000    -33.000 0.00000E+00 0.10000E+01 0.00000E+00  0.1052E-01  0.4760E-03  0.4300E+00  0.4240E-02  0.1404E+00  0.1120E-04  0.1113E-04  0.1185E-04  0.1226E-04  0.1069E-04  0.1125E-04  0.1158E-04  0.1824E-04  0.1260E-04  0.1223E-04  0.1127E-04
      2.953      0.000    -35.000 0.00000E+00 0.10000E+01 0.00000E+00  0.1046E-01  0.4729E-03  0.4273E+00  0.4213E-02  0.1395E+00  0.1113E-04  0.1106E-04  0.1177E-04  0.1218E-04  0.1062E-04  0.1118E-04  0.1150E-04  0.1812E-04  0.1252E-04  0.1215E-04  0.1120E-04
      2.953      0.000    -37.000 0.00000E+00 0.10000E+01 0.00000E+00  0.1044E-01  0.4723E-03  0.4268E+00  0.4208E-02  0.1393E+00  0.1111E-04  0.1104E-04  0.1176E-04  0.1216E-04  0.1061E-04  0.1117E-04  0.1149E-04  0.1810E-04  0.1250E-04  0.1214E-04  0.1119E-04
      2.953      0.000    -39.000 0.00000E+00 0.10000E+01 0.00000E+00  0.1050E-01  0.4747E-03  0.4289E+00  0.4229E-02  0.1400E+00  0.1117E-04  0.1110E-04  0.1182E-04  0.1222E-04  0.1066E-04  0.1123E-04  0.1155E-04  0.1819E-04  0.1257E-04  0.1220E-04  0.1124E-04
      4.586      0.000     -1.000 0.41790E+00 0.10000E+01 0.38475E-02  0.1122E-01  0.5074E-03  0.4584E+00  0.4520E-02  0.1497E+00  0.1194E-04  0.1186E-04  0.1263E-04  0.1306E-04  0.1139E-04  0.1200E-04  0.1234E-04  0.1944E-04  0.1343E-04  0.1304E-04  0.1202E-04
      4.586      0.000     -3.000 0.35814E+00 0.10000E+01 0.38418E-02  0.1120E-01  0.5066E-03  0.4577E+00  0.4513E-02  0.1494E+00  0.1192E-04  0.1185E-04  0.1261E-04  0.1304E-04  0.1138E-04  0.1198E-04  0.1232E-04  0.1941E-04  0.1341E-04  0.1302E-04  0.1200E-04
      4.586      0.000     -5.000 0.12341E-01 0.10000E+01 0.33441E-02  0.1044E-01  0.4722E-03  0.4267E+00  0.4207E-02  0.1393E+00  0.1111E-04  0.1104E-04  0.1176E-04  0.1216E-04  0.1061E-04  0.1117E-04  0.1149E-04  0.1810E-04  0.1250E-04  0.1214E-04  0.1119E-04
      4.586      0.000     -7.000 0.00000E+00 0.10000E+01 0.00000E+00  0.1042E-01  0.4714E-03  0.4259E+00  0.4199E-02  0.1391E+00  0.1109E-04  0.1102E-04  0.1174E-04  0.1214E-04  0.1059E-04  0.1115E-04  0.1147E-04  0.1807E-04  0.1248E-04  0.1211E-04  0.1117E-04
      4.586      0.000     -9.000 0.00000E+00 0.10000E+01 0.00000E+00  0.1041E-01  0.4707E-03  0.4253E+00  0.4193E-02  0.1389E+00  0.1108E-04  0.1101E-04  0.1172E-04  0.1212E-04  0.1057E-04  0.1113E-04  0.1145E-04  0.1804E-04  0.1246E-04  0.1210E-04  0.1115E-04
      4.586      0.000    -11.000 0.00000E+00 0.10000E+01 0.00000E+00  0.1039E-01  0.4699E-03  0.4246E+00  0.4187E-02  0.1386E+00  0.1106E-04  0.1099E-04  0.1170E-04  0.1210E-04  0.1056E-04  0.1111E-04  0.1143E-04  0.1801E-04  0.1244E-04  0.1208E-04  0.1113E-04
      4.586      0.000    -13.000 0.00000E+00 0.10000E+01 0.00000E+00  0.1037E-01  0.4690E-03  0.4238E+00  0.4178E-02  0.1384E+00  0.1104E-04  0.1097E-04  0.1168E-04  0.1208E-04  0.1054E-04  0.1109E-04  0.1141E-04  0.1797E-04  0.1242E-04  0.1205E-04  0.1111E-04
      4.586      0.000    -15.000 0.00000E+00 0.10000E+01 0.00000E+00  0.1038E-01  0.4693E-03  0.4241E+00  0.4181E-02  0.1385E+00  0.1104E-04  0.1098E-04  0.1168E-04  0.1209E-04  0.1054E-04  0.1110E-04  0.1142E-04  0.1799E-04  0.1242E-04  0.1206E-04  0.1112E-04
      4.586      0.000    -17.000 0.00000E+00 0.10000E+01 0.00000E+00  0.1040E-01  0.4702E-03  0.4248E+00  0.4189E-02  0.1387E+00  0.1106E-04  0.1100E-04  0.1171E-04  0.1211E-04  0.1056E-04  0.1112E-04  0.1144E-04  0.1802E-04  0.1245E-04  0.1208E-04  0.1114E-04
      4.586      0.000    -19.000 0.00000E+00 0.10000E+01 0.00000E+00  0.1041E-01  0.4707E-03  0.4253E+00  0.4193E-02  0.1389E+00  0.1108E-04  0.1101E-04  0.1172E-04  0.1212E-04  0.1057E-04  0.1113E-04  0.1145E-04  0.1804E-04  0.1246E-04  0.1210E-04  0.1115E-04
      4.586      0.000    -21.000 0.00000E+00 0.10000E+01 0.00000E+00  0.1044E-01  0.4721E-03  0.4265E+00  0.4205E-02  0.1393E+00  0.1111E-04  0.1104E-04  0.1175E-04  0.1216E-04  0.1060E-04  0.1116E-04  0.1148E-04  0.1809E-04  0.1250E-04  0.1213E-04  0.1118E-04
      4.586      0.000    -23.000 0.00000E+00 0.10000E+01 0.00000E+00  0.1045E-01  0.4725E-03  0.4269E+00  0.4210E-02  0.1394E+00  0.1112E-04  0.1105E-04  0.1176E-04  0.1217E-04  0.1061E-04  0.1117E-04  0.1150E-04  0.1811E-04  0.1251E-04  0.1214E-04  0.1119E-04
      4.586      0.000    -25.000 0.00000E+00 0.10000E+01 0.00000E+00  0.1046E-01  0.4732E-03  0.4275E+00  0.4215E-02  0.1396E+00  0.1113E-04  0.1107E-04  0.1178E-04  0.1218E-04  0.1063E-04  0.1119E-04  0.1151E-04  0.1813E-04  0.1253E-04  0.1216E-04  0.1121E-04
      4.586      0.000    -27.000 0.00000E+00 0.10000E+01 0.00000E+00  0.1044E-01  0.4720E-03  0.4265E+00  0.4205E-02  0.1392E+00  0.1111E-04  0.1104E-04  0.1175E-04  0.1215E-04  0.1060E-04  0.1116E-04  0.1148E-04  0.1809E-04  0.1250E-04  0.1213E-04  0.1118E-04
      4.586      0.000    -29.000 0.00000E+00 0.10000E+01 0.00000E+00  0.1044E-01  0.4722E-03  0.4266E+00  0.4206E-02  0.1393E+00  0.1111E-04  0.1104E-04  0.1175E-04  0.1216E-04  0.1060E-04  0.1117E-04  0.1149E-04  0.1809E-04  0.1250E-04  0.1213E-04  0.1118E-04
      4.586      0.000    -31.000 0.00000E+00 0.10000E+01 0.00000E+00  0.1045E-01  0.4727E-03  0.4271E+00  0.4211E-02  0.1395E+00  0.1112E-04  0.1105E-04  0.1177E-04  0.1217E-04  0.1062E-04  0.1118E-04  0.1150E-04  0.1812E-04  0.1251E-04  0.1215E-04  0.1120E-04
      4.586      0.000    -33.000 0.00000E+00 0.10000E+01 0.00000E+00  0.1055E-01  0.4773E-03  0.4313E+00  0.4252E-02  0.1408E+00  0.1123E-04  0.1116E-04  0.1188E-04  0.1229E-04  0.1072E-04  0.1129E-04  0.1161E-04  0.1829E-04  0.1264E-04  0.1227E-04  0.1131E-04
      4.586      0.000    -35.000 0.00000E+00 0.10000E+01 0.00000E+00  0.1048E-01  0.4740E-03  0.4283E+00  0.4222E-02  0.1398E+00  0.1115E-04  0.1108E-04  0.1180E-04  0.1220E-04  0.1065E-04  0.1121E-04  0.1153E-04  0.1816E-04  0.1255E-04  0.1218E-04  0.1123E-04
      4.586      0.000    -37.000 0.00000E+00 0.10000E+01 0.00000E+00  0.1050E-01  0.4749E-03  0.4291E+00  0.4231E-02  0.1401E+00  0.1118E-04  0.1111E-04  0.1182E-04  0.1223E-04  0.1067E-04  0.1123E-04  0.1155E-04  0.1820E-04  0.1257E-04  0.1221E-04  0.1125E-04
      4.586      0.000    -39.000 0.00000E+00 0.10000E+01 0.00000E+00  0.1047E-01  0.4734E-03  0.4277E+00  0.4217E-02  0.1396E+00  0.1114E-04  0.1107E-04  0.1178E-04  0.1219E-04  0.1063E-04  0.1119E-04  0.1152E-04  0.1814E-04  0.1253E-04  0.1216E-04  0.1121E-04
      6.571      0.000     -1.000 0.41848E+00 0.10000E+01 0.38476E-02  0.1122E-01  0.5074E-03  0.4584E+00  0.4520E-02  0.1497E+00  0.1194E-04  0.1186E-04  0.1263E-04  0.1306E-04  0.1139E-04  0.1200E-04  0.1234E-04  0.1944E-04  0.1343E-04  0.1304E-04  0.1202E-04
      6.571      0.000     -3.000 0.36306E+00 0.10000E+01 0.38424E-02  0.1120E-01  0.5067E-03  0.4578E+00  0.4514E-02  0.1495E+00  0.1192E-04  0.1185E-04  0.1261E-04  0.1305E-04  0.1138E-04  0.1198E-04  0.1233E-04  0.1941E-04  0.1341E-04  0.1302E-04  0.1200E-04
      6.571      0.000     -5.000 0.21699E-01 0.10000E+01 0.33441E-02  0.1044E-01  0.4723E-03  0.4267E+00  0.4207E-02  0.1393E+00  0.1111E-04  0.1105E-04  0.1176E-04  0.1216E-04  0.1061E-04  0.1117E-04  0.1149E-04  0.1810E-04  0.1250E-04  0.1214E-04  0.1119E-04
      6.571      0.000     -7.000 0.00000E+00 0.10000E+01 0.00000E+00  0.1042E-01  0.4715E-03  0.4260E+00  0.4200E-02  0.1391E+00  0.1110E-04  0.1103E-04  0.1174E-04  0.1214E-04  0.1059E-04  0.1115E-04  0.1147E-04  0.1807E-04  0.1248E-04  0.1212E-04  0.1117E-04
      6.571      0.000     -9.000 0.00000E+00 0.10000E+01 0.00000E+00  0.1041E-01  0.4707E-03  0.4253E+00  0.4193E-02  0.1389E+00  0.1108E-04  0.1101E-04  0.1172E-04  0.1212E-04  0.1057E-04  0.1113E-04  0.1145E-04  0.1804E-04  0.1246E-04  0.1210E-04  0.1115E-04
      6.571      0.000    -11.000 0.00000E+00 0.10000E+01 0.00000E+00  0.1039E-01  0.4697E-03  0.4244E+00  0.4185E-02  0.1386E+00  0.1105E-04  0.1099E-04  0.1170E-04  0.1210E-04  0.1055E-04  0.1111E-04  0.1143E-04  0.1800E-04  0.1244E-04  0.1207E-04  0.1113E-04
      6.571      0.000    -13.000 0.00000E+00 0.10000E+01 0.00000E+00  0.1038E-01  0.4693E-03  0.4240E+00  0.4181E-02  0.1384E+00  0.1104E-04  0.1098E-04  0.1168E-04  0.1208E-04  0.1054E-04  0.1110E-04  0.1142E-04  0.1799E-04  0.1242E-04  0.1206E-04  0.1112E-04
      6.571      0.000    -15.000 0.00000E+00 0.10000E+01 0.00000E+00  0.1037E-01  0.4692E-03  0.4239E+00  0.4180E-02  0.1384E+00  0.1104E-04  0.1097E-04  0.1168E-04  0.1208E-04  0.1054E-04  0.1110E-04  0.1142E-04  0.1798E-04  0.1242E-04  0.1206E-04  0.1112E-04
      6.571      0.000    -17.000 0.00000E+00 0.10000E+01 0.00000E+00  0.1039E-01  0.4699E-03  0.4246E+00  0.4186E-02  0.1386E+00  0.1106E-04  0.1099E-04  0.1170E-04  0.1210E-04  0.1056E-04  0.1111E-04  0.1143E-04  0.1801E-04  0.1244E-04  0.1208E-04  0.1113E-04
      6.571      0.000    -19.000 0.00000E+00 0.10000E+01 0.00000E+00  0.1040E-01  0.4705E-03  0.4251E+00  0.4192E-02  0.1388E+00  0.1107E-04  0.1100E-04  0.1171E-04  0.1212E-04  0.1057E-04  0.1113E-04  0.1145E-04  0.1803E-04  0.1246E-04  0.1209E-04  0.1115E-04
      6.571      0.000    -21.000 0.00000E+00 0.10000E+01 0.00000E+00  0.1042E-01  0.4713E-03  0.4259E+00  0.4199E-02  0.1390E+00  0.1109E-04  0.1102E-04  0.1173E-04  0.1214E-04  0.1059E-04  0.1115E-04  0.1147E-04  0.1806E-04  0.1248E-04  0.1211E-04  0.1117E-04
      6.571      0.000    -23.000 0.00000E+00 0.10000E+01 0.00000E+00  0.1044E-01  0.4721E-03  0.4266E+00  0.4206E-02  0.1393E+00  0.1111E-04  0.1104E-04  0.1175E-04  0.1216E-04  0.1060E-04  0.1116E-04  0.1149E-04  0.1809E-04  0.1250E-04  0.1213E-04  0.1118E-04
      6.571      0.000    -25.000 0.00000E+00 0.10000E+01 0.00000E+00  0.1045E-01  0.4726E-03  0.4270E+00  0.4211E-02  0.1394E+00  0.1112E-04  0.1105E-04  0.1177E-04  0.1217E-04  0.1062E-04  0.1118E-04  0.1150E-04  0.1811E-04  0.1251E-04  0.1215E-04  0.1120E-04
      6.571      0.000    -27.000 0.00000E+00 0.10000E+01 0.00000E+00  0.1048E-01  0.4742E-03  0.4284E+00  0.4224E-02  0.1399E+00  0.1116E-04  0.1109E-04  0.1180E-04  0.1221E-04  0.1065E-04  0.1121E-04  0.1154E-04  0.1817E-04  0.1255E-04  0.1219E-04  0.1123E-04
      6.571      0.000    -29.000 0.00000E+00 0.10000E+01 0.00000E+00  0.1054E-01  0.4768E-03  0.4308E+00  0.4248E-02  0.1407E+00  0.1122E-04  0.1115E-04  0.1187E-04  0.1228E-04  0.1071E-04  0.1128E-04  0.1160E-04  0.1827E-04  0.1262E-04  0.1225E-04  0.1130E-04
      6.571      0.000    -31.000 0.00000E+00 0.10000E+01 0.00000E+00  0.1046E-01  0.4733E-03  0.4276E+00  0.4216E-02  0.1396E+00  0.1114E-04  0.1107E-04  0.1178E-04  0.1219E-04  0.1063E-04  0.1119E-04  0.1151E-04  0.1814E-04  0.1253E-04  0.1216E-04  0.1121E-04
      6.571      0.000    -33.000 0.00000E+00 0.10000E+01 0.00000E+00  0.1051E-01  0.4753E-03  0.4294E+00  0.4234E-02  0.1402E+00  0.1118E-04  0.1111E-04  0.1183E-04  0.1224E-04  0.1068E-04  0.1124E-04  0.1156E-04  0.1821E-04  0.1258E-04  0.1221E-04  0.1126E-04
      6.571      0.000    -35.000 0.00000E+00 0.10000E+01 0.00000E+00  0.1048E-01  0.4740E-03  0.4283E+00  0.4223E-02  0.1398E+00  0.1115E-04  0.1108E-04  0.1180E-04  0.1221E-04  0.1065E-04  0.1121E-04  0.1153E-04  0.1817E-04  0.1255E-04  0.1218E-04  0.1123E-04
      6.571      0.000    -37.000 0.00000E+00 0.10000E+01 0.00000E+00  0.1053E-01  0.4764E-03  0.4304E+00  0.4244E-02  0.1405E+00  0.1121E-04  0.1114E-04  0.1186E-04  0.1227E-04  0.1070E-04  0.1127E-04  0.1159E-04  0.1826E-04  0.1261E-04  0.1224E-04  0.1128E-04
      6.571      0.000    -39.000 0.00000E+00 0.10000E+01 0.00000E+00  0.1050E-01  0.4748E-03  0.4290E+00  0.4230E-02  0.1401E+00  0.1117E-04  0.1110E-04  0.1182E-04  0.1223E-04  0.1066E-04  0.1123E-04  0.1155E-04  0.1820E-04  0.1257E-04  0.1220E-04  0.1125E-04
      8.982      0.000     -1.000 0.41938E+00 0.10000E+01 0.38477E-02  0.1122E-01  0.5074E-03  0.4584E+00  0.4520E-02  0.1497E+00  0.1194E-04  0.1186E-04  0.1263E-04  0.1306E-04  0.1140E-04  0.1200E-04  0.1234E-04  0.1944E-04  0.1343E-04  0.1304E-04  0.1202E-04
      8.982      0.000     -3.000 0.36925E+00 0.10000E+01 0.38431E-02  0.1120E-01  0.5068E-03  0.4579E+00  0.4515E-02  0.1495E+00  0.1192E-04  0.1185E-04  0.1261E-04  0.1305E-04  0.1138E-04  0.1198E-04  0.1233E-04  0.1942E-04  0.1341E-04  0.1302E-04  0.1200E-04
      8.982      0.000     -5.000 0.38570E-01 0.10000E+01 0.33442E-02  0.1044E-01  0.4723E-03  0.4267E+00  0.4207E-02  0.1393E+00  0.1111E-04  0.1105E-04  0.1176E-04  0.1216E-04  0.1061E-04  0.1117E-04  0.1149E-04  0.1810E-04  0.1250E-04  0.1214E-04  0.1119E-04
      8.982      0.000     -7.000 0.00000E+00 0.10000E+01 0.00000E+00  0.1043E-01  0.4716E-03  0.4261E+00  0.4201E-02  0.1391E+00  0.1110E-04  0.1103E-04  0.1174E-04  0.1214E-04  0.1059E-04  0.1115E-04  0.1147E-04  0.1807E-04  0.1248E-04  0.1212E-04  0.1117E-04
      8.982      0.000     -9.000 0.00000E+00 0.10000E+01 0.00000E+00  0.1041E-01  0.4708E-03  0.4253E+00  0.4194E-02  0.1389E+00  0.1108E-04  0.1101E-04  0.1172E-04  0.1212E-04  0.1057E-04  0.1113E-04  0.1145E-04  0.1804E-04  0.1246E-04  0.1210E-04  0.1115E-04
      8.982      0.000    -11.000 0.00000E+00 0.10000E+01 0.00000E+00  0.1039E-01  0.4699E-03  0.4246E+00  0.4186E-02  0.1386E+00  0.1106E-04  0.1099E-04  0.1170E-04  0.1210E-04  0.1056E-04  0.1111E-04  0.1143E-04  0.1801E-04  0.1244E-04  0.1208E-04  0.1113E-04
      8.982      0.000    -13.000 0.00000E+00 0.10000E+01 0.00000E+00  0.1038E-01  0.4693E-03  0.4240E+00  0.4181E-02  0.1384E+00  0.1104E-04  0.1098E-04  0.1168E-04  0.1208E-04  0.1054E-04  0.1110E-04  0.1142E-04  0.1799E-04  0.1242E-04  0.1206E-04  0.1112E-04
      8.982      0.000    -15.000 0.00000E+00 0.10000E+01 0.00000E+00  0.1038E-01  0.4693E-03  0.4240E+00  0.4180E-02  0.1384E+00  0.1104E-04  0.1098E-04  0.1168E-04  0.1208E-04  0.1054E-04  0.1110E-04  0.1142E-04  0.1799E-04  0.1242E-04  0.1206E-04  0.1112E-04
      8.982      0.000    -17.000 0.00000E+00 0.10000E+01 0.00000E+00  0.1038E-01  0.4696E-03  0.4243E+00  0.4184E-02  0.1385E+00  0.1105E-04  0.1098E-04  0.1169E-04  0.1209E-04  0.1055E-04  0.1111E-04  0.1143E-04  0.1800E-04  0.1243E-04  0.1207E-04  0.1113E-04
      8.982      0.000    -19.000 0.00000E+00 0.10000E+01 0.00000E+00  0.1041E-01  0.4711E-03  0.4256E+00  0.4196E-02  0.1390E+00  0.1109E-04  0.1102E-04  0.1173E-04  0.1213E-04  0.1058E-04  0.1114E-04  0.1146E-04  0.1805E-04  0.1247E-04  0.1211E-04  0.1116E-04
      8.982      0.000    -21.000 0.00000E+00 0.10000E+01 0.00000E+00  0.1041E-01  0.4710E-03  0.4255E+00  0.4196E-02  0.1389E+00  0.1108E-04  0.1101E-04  0.1173E-04  0.1213E-04  0.1058E-04  0.1114E-04  0.1146E-04  0.1805E-04  0.1247E-04  0.1210E-04  0.1116E-04
      8.982      0.000    -23.000 0.00000E+00 0.10000E+01 0.00000E+00  0.1042E-01  0.4715E-03  0.4260E+00  0.4200E-02  0.1391E+00  0.1109E-04  0.1103E-04  0.1174E-04  0.1214E-04  0.1059E-04  0.1115E-04  0.1147E-04  0.1807E-04  0.1248E-04  0.1212E-04  0.1117E-04