
          ---- Aqueous concentrations vs. grid blocks at specified times ----

 
   Unit: 
    - Aqueous species: Total concencentrations in mol/kg h2o
    - Aqueous species: Individual concentrations in mol/kg h2o
    - Component in dry nodes in mol/L medium
 
VARIABLES =X,       Y,      Z,      Sg,     Sl,         T,        pH,   Density_L       t_ca+2     ,t_mg+2     ,t_na+      ,t_k+       ,t_fe+2     ,t_sio2(aq) ,t_hco3-    ,t_so4-2    ,t_alo2-    ,t_cl-      ,t_o2(aq)   ,co2(aq)    ,
ZONE T= "0.000000E+00 yr"  F=POINT
      0.500      0.000    -1.000   0.000   1.000  0.5500E+02  0.0000E+00  0.0000E+00  0.4741E-02  0.2671E-04  0.9913E+00  0.5985E-02  0.3024E-06  0.1035E-02  0.4566E-01  0.1325E-08  0.1362E-07  0.1002E+01 -0.8653E-01  0.8638E-04
      0.500      0.000    -3.000   0.000   1.000  0.5500E+02  0.0000E+00  0.0000E+00  0.4741E-02  0.2671E-04  0.9913E+00  0.5985E-02  0.3024E-06  0.1035E-02  0.4566E-01  0.1325E-08  0.1362E-07  0.1002E+01 -0.8653E-01  0.8638E-04
      0.500      0.000    -5.000   0.000   1.000  0.5500E+02  0.0000E+00  0.0000E+00  0.4741E-02  0.2671E-04  0.9913E+00  0.5985E-02  0.3024E-06  0.1035E-02  0.4566E-01  0.1325E-08  0.1362E-07  0.1002E+01 -0.8653E-01  0.8638E-04
      0.500      0.000    -7.000   0.000   1.000  0.5500E+02  0.0000E+00  0.0000E+00  0.4741E-02  0.2671E-04  0.9913E+00  0.5985E-02  0.3024E-06  0.1035E-02  0.4566E-01  0.1325E-08  0.1362E-07  0.1002E+01 -0.8653E-01  0.8638E-04
      0.500      0.000    -9.000   0.000   1.000  0.5500E+02  0.0000E+00  0.0000E+00  0.4741E-02  0.2671E-04  0.9913E+00  0.5985E-02  0.3024E-06  0.1035E-02  0.4566E-01  0.1325E-08  0.1362E-07  0.1002E+01 -0.8653E-01  0.8638E-04
      0.500      0.000   -11.000   0.000   1.000  0.5500E+02  0.0000E+00  0.0000E+00  0.4741E-02  0.2671E-04  0.9913E+00  0.5985E-02  0.3024E-06  0.1035E-02  0.4566E-01  0.1325E-08  0.1362E-07  0.1002E+01 -0.8653E-01  0.8638E-04
      0.500      0.000   -13.000   0.000   1.000  0.5500E+02  0.0000E+00  0.0000E+00  0.4741E-02  0.2671E-04  0.9913E+00  0.5985E-02  0.3024E-06  0.1035E-02  0.4566E-01  0.1325E-08  0.1362E-07  0.1002E+01 -0.8653E-01  0.8638E-04
      0.500      0.000   -15.000   0.000   1.000  0.5500E+02  0.0000E+00  0.0000E+00  0.4741E-02  0.2671E-04  0.9913E+00  0.5985E-02  0.3024E-06  0.1035E-02  0.4566E-01  0.1325E-08  0.1362E-07  0.1002E+01 -0.8653E-01  0.8638E-04
      0.500      0.000   -17.000   0.000   1.000  0.5500E+02  0.0000E+00  0.0000E+00  0.4741E-02  0.2671E-04  0.9913E+00  0.5985E-02  0.3024E-06  0.1035E-02  0.4566E-01  0.1325E-08  0.1362E-07  0.1002E+01 -0.8653E-01  0.8638E-04
      0.500      0.000   -19.000   0.000   1.000  0.5500E+02  0.0000E+00  0.0000E+00  0.4741E-02  0.2671E-04  0.9913E+00  0.5985E-02  0.3024E-06  0.1035E-02  0.4566E-01  0.1325E-08  0.1362E-07  0.1002E+01 -0.8653E-01  0.8638E-04
      0.500      0.000   -21.000   0.000   1.000  0.5500E+02  0.0000E+00  0.0000E+00  0.4741E-02  0.2671E-04  0.9913E+00  0.5985E-02  0.3024E-06  0.1035E-02  0.4566E-01  0.1325E-08  0.1362E-07  0.1002E+01 -0.8653E-01  0.8638E-04
      0.500      0.000   -23.000   0.000   1.000  0.5500E+02  0.0000E+00  0.0000E+00  0.4741E-02  0.2671E-04  0.9913E+00  0.5985E-02  0.3024E-06  0.1035E-02  0.4566E-01  0.1325E-08  0.1362E-07  0.1002E+01 -0.8653E-01  0.8638E-04
      0.500      0.000   -25.000   0.000   1.000  0.5500E+02  0.0000E+00  0.0000E+00  0.4741E-02  0.2671E-04  0.9913E+00  0.5985E-02  0.3024E-06  0.1035E-02  0.4566E-01  0.1325E-08  0.1362E-07  0.1002E+01 -0.8653E-01  0.8638E-04
      0.500      0.000   -27.000   0.000   1.000  0.5500E+02  0.0000E+00  0.0000E+00  0.4741E-02  0.2671E-04  0.9913E+00  0.5985E-02  0.3024E-06  0.1035E-02  0.4566E-01  0.1325E-08  0.1362E-07  0.1002E+01 -0.8653E-01  0.8638E-04
      0.500      0.000   -29.000   0.000   1.000  0.5500E+02  0.0000E+00  0.0000E+00  0.4741E-02  0.2671E-04  0.9913E+00  0.5985E-02  0.3024E-06  0.1035E-02  0.4566E-01  0.1325E-08  0.1362E-07  0.1002E+01 -0.8653E-01  0.8638E-04
      0.500      0.000   -31.000   0.000   1.000  0.5500E+02  0.0000E+00  0.0000E+00  0.4741E-02  0.2671E-04  0.9913E+00  0.5985E-02  0.3024E-06  0.1035E-02  0.4566E-01  0.1325E-08  0.1362E-07  0.1002E+01 -0.8653E-01  0.8638E-04
      0.500      0.000   -33.000   0.000   1.000  0.5500E+02  0.0000E+00  0.0000E+00  0.4741E-02  0.2671E-04  0.9913E+00  0.5985E-02  0.3024E-06  0.1035E-02  0.4566E-01  0.1325E-08  0.1362E-07  0.1002E+01 -0.8653E-01  0.8638E-04
      0.500      0.000   -35.000   0.000   1.000  0.5500E+02  0.0000E+00  0.0000E+00  0.4741E-02  0.2671E-04  0.9913E+00  0.5985E-02  0.3024E-06  0.1035E-02  0.4566E-01  0.1325E-08  0.1362E-07  0.1002E+01 -0.8653E-01  0.8638E-04
      0.500      0.000   -37.000   0.000   1.000  0.5500E+02  0.0000E+00  0.0000E+00  0.4741E-02  0.2671E-04  0.9913E+00  0.5985E-02  0.3024E-06  0.1035E-02  0.4566E-01  0.1325E-08  0.1362E-07  0.1002E+01 -0.8653E-01  0.8638E-04
      0.500      0.000   -39.000   0.000   1.000  0.5500E+02  0.0000E+00  0.0000E+00  0.4741E-02  0.2671E-04  0.9913E+00  0.5985E-02  0.3024E-06  0.1035E-02  0.4566E-01  0.1325E-08  0.1362E-07  0.1002E+01 -0.8653E-01  0.8638E-04
      1.607      0.000    -1.000   0.000   1.000  0.5500E+02  0.0000E+00  0.0000E+00  0.4741E-02  0.2671E-04  0.9913E+00  0.5985E-02  0.3024E-06  0.1035E-02  0.4566E-01  0.1325E-08  0.1362E-07  0.1002E+01 -0.8653E-01  0.8638E-04
      1.607      0.000    -3.000   0.000   1.000  0.5500E+02  0.0000E+00  0.0000E+00  0.4741E-02  0.2671E-04  0.9913E+00  0.5985E-02  0.3024E-06  0.1035E-02  0.4566E-01  0.1325E-08  0.1362E-07  0.1002E+01 -0.8653E-01  0.8638E-04
      1.607      0.000    -5.000   0.000   1.000  0.5500E+02  0.0000E+00  0.0000E+00  0.4741E-02  0.2671E-04  0.9913E+00  0.5985E-02  0.3024E-06  0.1035E-02  0.4566E-01  0.1325E-08  0.1362E-07  0.1002E+01 -0.8653E-01  0.8638E-04
      1.607      0.000    -7.000   0.000   1.000  0.5500E+02  0.0000E+00  0.0000E+00  0.4741E-02  0.2671E-04  0.9913E+00  0.5985E-02  0.3024E-06  0.1035E-02  0.4566E-01  0.1325E-08  0.1362E-07  0.1002E+01 -0.8653E-01  0.8638E-04
      1.607      0.000    -9.000   0.000   1.000  0.5500E+02  0.0000E+00  0.0000E+00  0.4741E-02  0.2671E-04  0.9913E+00  0.5985E-02  0.3024E-06  0.1035E-02  0.4566E-01  0.1325E-08  0.1362E-07  0.1002E+01 -0.8653E-01  0.8638E-04
      1.607      0.000   -11.000   0.000   1.000  0.5500E+02  0.0000E+00  0.0000E+00  0.4741E-02  0.2671E-04  0.9913E+00  0.5985E-02  0.3024E-06  0.1035E-02  0.4566E-01  0.1325E-08  0.1362E-07  0.1002E+01 -0.8653E-01  0.8638E-04
      1.607      0.000   -13.000   0.000   1.000  0.5500E+02  0.0000E+00  0.0000E+00  0.4741E-02  0.2671E-04  0.9913E+00  0.5985E-02  0.3024E-06  0.1035E-02  0.4566E-01  0.1325E-08  0.1362E-07  0.1002E+01 -0.8653E-01  0.8638E-04
      1.607      0.000   -15.000   0.000   1.000  0.5500E+02  0.0000E+00  0.0000E+00  0.4741E-02  0.2671E-04  0.9913E+00  0.5985E-02  0.3024E-06  0.1035E-02  0.4566E-01  0.1325E-08  0.1362E-07  0.1002E+01 -0.8653E-01  0.8638E-04
      1.607      0.000   -17.000   0.000   1.000  0.5500E+02  0.0000E+00  0.0000E+00  0.4741E-02  0.2671E-04  0.9913E+00  0.5985E-02  0.3024E-06  0.1035E-02  0.4566E-01  0.1325E-08  0.1362E-07  0.1002E+01 -0.8653E-01  0.8638E-04
      1.607      0.000   -19.000   0.000   1.000  0.5500E+02  0.0000E+00  0.0000E+00  0.4741E-02  0.2671E-04  0.9913E+00  0.5985E-02  0.3024E-06  0.1035E-02  0.4566E-01  0.1325E-08  0.1362E-07  0.1002E+01 -0.8653E-01  0.8638E-04
      1.607      0.000   -21.000   0.000   1.000  0.5500E+02  0.0000E+00  0.0000E+00  0.4741E-02  0.2671E-04  0.9913E+00  0.5985E-02  0.3024E-06  0.1035E-02  0.4566E-01  0.1325E-08  0.1362E-07  0.1002E+01 -0.8653E-01  0.8638E-04
      1.607      0.000   -23.000   0.000   1.000  0.5500E+02  0.0000E+00  0.0000E+00  0.4741E-02  0.2671E-04  0.9913E+00  0.5985E-02  0.3024E-06  0.1035E-02  0.4566E-01  0.1325E-08  0.1362E-07  0.1002E+01 -0.8653E-01  0.8638E-04
      1.607      0.000   -25.000   0.000   1.000  0.5500E+02  0.0000E+00  0.0000E+00  0.4741E-02  0.2671E-04  0.9913E+00  0.5985E-02  0.3024E-06  0.1035E-02  0.4566E-01  0.1325E-08  0.1362E-07  0.1002E+01 -0.8653E-01  0.8638E-04
      1.607      0.000   -27.000   0.000   1.000  0.5500E+02  0.0000E+00  0.0000E+00  0.4741E-02  0.2671E-04  0.9913E+00  0.5985E-02  0.3024E-06  0.1035E-02  0.4566E-01  0.1325E-08  0.1362E-07  0.1002E+01 -0.8653E-01  0.8638E-04
      1.607      0.000   -29.000   0.000   1.000  0.5500E+02  0.0000E+00  0.0000E+00  0.4741E-02  0.2671E-04  0.9913E+00  0.5985E-02  0.3024E-06  0.1035E-02  0.4566E-01  0.1325E-08  0.1362E-07  0.1002E+01 -0.8653E-01  0.8638E-04
      1.607      0.000   -31.000   0.000   1.000  0.5500E+02  0.0000E+00  0.0000E+00  0.4741E-02  0.2671E-04  0.9913E+00  0.5985E-02  0.3024E-06  0.1035E-02  0.4566E-01  0.1325E-08  0.1362E-07  0.1002E+01 -0.8653E-01  0.8638E-04
      1.607      0.000   -33.000   0.000   1.000  0.5500E+02  0.0000E+00  0.0000E+00  0.4741E-02  0.2671E-04  0.9913E+00  0.5985E-02  0.3024E-06  0.1035E-02  0.4566E-01  0.1325E-08  0.1362E-07  0.1002E+01 -0.8653E-01  0.8638E-04
      1.607      0.000   -35.000   0.000   1.000  0.5500E+02  0.0000E+00  0.0000E+00  0.4741E-02  0.2671E-04  0.9913E+00  0.5985E-02  0.3024E-06  0.1035E-02  0.4566E-01  0.1325E-08  0.1362E-07  0.1002E+01 -0.8653E-01  0.8638E-04
      1.607      0.000   -37.000   0.000   1.000  0.5500E+02  0.0000E+00  0.0000E+00  0.4741E-02  0.2671E-04  0.9913E+00  0.5985E-02  0.3024E-06  0.1035E-02  0.4566E-01  0.1325E-08  0.1362E-07  0.1002E+01 -0.8653E-01  0.8638E-04
      1.607      0.000   -39.000   0.000   1.000  0.5500E+02  0.0000E+00  0.0000E+00  0.4741E-02  0.2671E-04  0.9913E+00  0.5985E-02  0.3024E-06  0.1035E-02  0.4566E-01  0.1325E-08  0.1362E-07  0.1002E+01 -0.8653E-01  0.8638E-04
      2.953      0.000    -1.000   0.000   1.000  0.5500E+02  0.0000E+00  0.0000E+00  0.4741E-02  0.2671E-04  0.9913E+00  0.5985E-02  0.3024E-06  0.1035E-02  0.4566E-01  0.1325E-08  0.1362E-07  0.1002E+01 -0.8653E-01  0.8638E-04
      2.953      0.000    -3.000   0.000   1.000  0.5500E+02  0.0000E+00  0.0000E+00  0.4741E-02  0.2671E-04  0.9913E+00  0.5985E-02  0.3024E-06  0.1035E-02  0.4566E-01  0.1325E-08  0.1362E-07  0.1002E+01 -0.8653E-01  0.8638E-04
      2.953      0.000    -5.000   0.000   1.000  0.5500E+02  0.0000E+00  0.0000E+00  0.4741E-02  0.2671E-04  0.9913E+00  0.5985E-02  0.3024E-06  0.1035E-02  0.4566E-01  0.1325E-08  0.1362E-07  0.1002E+01 -0.8653E-01  0.8638E-04
      2.953      0.000    -7.000   0.000   1.000  0.5500E+02  0.0000E+00  0.0000E+00  0.4741E-02  0.2671E-04  0.9913E+00  0.5985E-02  0.3024E-06  0.1035E-02  0.4566E-01  0.1325E-08  0.1362E-07  0.1002E+01 -0.8653E-01  0.8638E-04
      2.953      0.000    -9.000   0.000   1.000  0.5500E+02  0.0000E+00  0.0000E+00  0.4741E-02  0.2671E-04  0.9913E+00  0.5985E-02  0.3024E-06  0.1035E-02  0.4566E-01  0.1325E-08  0.1362E-07  0.1002E+01 -0.8653E-01  0.8638E-04
      2.953      0.000   -11.000   0.000   1.000  0.5500E+02  0.0000E+00  0.0000E+00  0.4741E-02  0.2671E-04  0.9913E+00  0.5985E-02  0.3024E-06  0.1035E-02  0.4566E-01  0.1325E-08  0.1362E-07  0.1002E+01 -0.8653E-01  0.8638E-04
      2.953      0.000   -13.000   0.000   1.000  0.5500E+02  0.0000E+00  0.0000E+00  0.4741E-02  0.2671E-04  0.9913E+00  0.5985E-02  0.3024E-06  0.1035E-02  0.4566E-01  0.1325E-08  0.1362E-07  0.1002E+01 -0.8653E-01  0.8638E-04
      2.953      0.000   -15.000   0.000   1.000  0.5500E+02  0.0000E+00  0.0000E+00  0.4741E-02  0.2671E-04  0.9913E+00  0.5985E-02  0.3024E-06  0.1035E-02  0.4566E-01  0.1325E-08  0.1362E-07  0.1002E+01 -0.8653E-01  0.8638E-04
      2.953      0.000   -17.000   0.000   1.000  0.5500E+02  0.0000E+00  0.0000E+00  0.4741E-02  0.2671E-04  0.9913E+00  0.5985E-02  0.3024E-06  0.1035E-02  0.4566E-01  0.1325E-08  0.1362E-07  0.1002E+01 -0.8653E-01  0.8638E-04
      2.953      0.000   -19.000   0.000   1.000  0.5500E+02  0.0000E+00  0.0000E+00  0.4741E-02  0.2671E-04  0.9913E+00  0.5985E-02  0.3024E-06  0.1035E-02  0.4566E-01  0.1325E-08  0.1362E-07  0.1002E+01 -0.8653E-01  0.8638E-04
      2.953      0.000   -21.000   0.000   1.000  0.5500E+02  0.0000E+00  0.0000E+00  0.4741E-02  0.2671E-04  0.9913E+00  0.5985E-02  0.3024E-06  0.1035E-02  0.4566E-01  0.1325E-08  0.1362E-07  0.1002E+01 -0.8653E-01  0.8638E-04
      2.953      0.000   -23.000   0.000   1.000  0.5500E+02  0.0000E+00  0.0000E+00  0.4741E-02  0.2671E-04  0.9913E+00  0.5985E-02  0.3024E-06  0.1035E-02  0.4566E-01  0.1325E-08  0.1362E-07  0.1002E+01 -0.8653E-01  0.8638E-04
      2.953      0.000   -25.000   0.000   1.000  0.5500E+02  0.0000E+00  0.0000E+00  0.4741E-02  0.2671E-04  0.9913E+00  0.5985E-02  0.3024E-06  0.1035E-02  0.4566E-01  0.1325E-08  0.1362E-07  0.1002E+01 -0.8653E-01  0.8638E-04
      2.953      0.000   -27.000   0.000   1.000  0.5500E+02  0.0000E+00  0.0000E+00  0.4741E-02  0.2671E-04  0.9913E+00  0.5985E-02  0.3024E-06  0.1035E-02  0.4566E-01  0.1325E-08  0.1362E-07  0.1002E+01 -0.8653E-01  0.8638E-04
      2.953      0.000   -29.000   0.000   1.000  0.5500E+02  0.0000E+00  0.0000E+00  0.4741E-02  0.2671E-04  0.9913E+00  0.5985E-02  0.3024E-06  0.1035E-02  0.4566E-01  0.1325E-08  0.1362E-07  0.1002E+01 -0.8653E-01  0.8638E-04
      2.953      0.000   -31.000   0.000   1.000  0.5500E+02  0.0000E+00  0.0000E+00  0.4741E-02  0.2671E-04  0.9913E+00  0.5985E-02  0.3024E-06  0.1035E-02  0.4566E-01  0.1325E-08  0.1362E-07  0.1002E+01 -0.8653E-01  0.8638E-04
      2.953      0.000   -33.000   0.000   1.000  0.5500E+02  0.0000E+00  0.0000E+00  0.4741E-02  0.2671E-04  0.9913E+00  0.5985E-02  0.3024E-06  0.1035E-02  0.4566E-01  0.1325E-08  0.1362E-07  0.1002E+01 -0.8653E-01  0.8638E-04
      2.953      0.000   -35.000   0.000   1.000  0.5500E+02  0.0000E+00  0.0000E+00  0.4741E-02  0.2671E-04  0.9913E+00  0.5985E-02  0.3024E-06  0.1035E-02  0.4566E-01  0.1325E-08  0.1362E-07  0.1002E+01 -0.8653E-01  0.8638E-04
      2.953      0.000   -37.000   0.000   1.000  0.5500E+02  0.0000E+00  0.0000E+00  0.4741E-02  0.2671E-04  0.9913E+00  0.5985E-02  0.3024E-06  0.1035E-02  0.4566E-01  0.1325E-08  0.1362E-07  0.1002E+01 -0.8653E-01  0.8638E-04
      2.953      0.000   -39.000   0.000   1.000  0.5500E+02  0.0000E+00  0.0000E+00  0.4741E-02  0.2671E-04  0.9913E+00  0.5985E-02  0.3024E-06  0.1035E-02  0.4566E-01  0.1325E-08  0.1362E-07  0.1002E+01 -0.8653E-01  0.8638E-04
      4.586      0.000    -1.000   0.000   1.000  0.5500E+02  0.0000E+00  0.0000E+00  0.4741E-02  0.2671E-04  0.9913E+00  0.5985E-02  0.3024E-06  0.1035E-02  0.4566E-01  0.1325E-08  0.1362E-07  0.1002E+01 -0.8653E-01  0.8638E-04
      4.586      0.000    -3.000   0.000   1.000  0.5500E+02  0.0000E+00  0.0000E+00  0.4741E-02  0.2671E-04  0.9913E+00  0.5985E-02  0.3024E-06  0.1035E-02  0.4566E-01  0.1325E-08  0.1362E-07  0.1002E+01 -0.8653E-01  0.8638E-04
      4.586      0.000    -5.000   0.000   1.000  0.5500E+02  0.0000E+00  0.0000E+00  0.4741E-02  0.2671E-04  0.9913E+00  0.5985E-02  0.3024E-06  0.1035E-02  0.4566E-01  0.1325E-08  0.1362E-07  0.1002E+01 -0.8653E-01  0.8638E-04
      4.586      0.000    -7.000   0.000   1.000  0.5500E+02  0.0000E+00  0.0000E+00  0.4741E-02  0.2671E-04  0.9913E+00  0.5985E-02  0.3024E-06  0.1035E-02  0.4566E-01  0.1325E-08  0.1362E-07  0.1002E+01 -0.8653E-01  0.8638E-04
      4.586      0.000    -9.000   0.000   1.000  0.5500E+02  0.0000E+00  0.0000E+00  0.4741E-02  0.2671E-04  0.9913E+00  0.5985E-02  0.3024E-06  0.1035E-02  0.4566E-01  0.1325E-08  0.1362E-07  0.1002E+01 -0.8653E-01  0.8638E-04
      4.586      0.000   -11.000   0.000   1.000  0.5500E+02  0.0000E+00  0.0000E+00  0.4741E-02  0.2671E-04  0.9913E+00  0.5985E-02  0.3024E-06  0.1035E-02  0.4566E-01  0.1325E-08  0.1362E-07  0.1002E+01 -0.8653E-01  0.8638E-04
      4.586      0.000   -13.000   0.000   1.000  0.5500E+02  0.0000E+00  0.0000E+00  0.4741E-02  0.2671E-04  0.9913E+00  0.5985E-02  0.3024E-06  0.1035E-02  0.4566E-01  0.1325E-08  0.1362E-07  0.1002E+01 -0.8653E-01  0.8638E-04
      4.586      0.000   -15.000   0.000   1.000  0.5500E+02  0.0000E+00  0.0000E+00  0.4741E-02  0.2671E-04  0.9913E+00  0.5985E-02  0.3024E-06  0.1035E-02  0.4566E-01  0.1325E-08  0.1362E-07  0.1002E+01 -0.8653E-01  0.8638E-04
      4.586      0.000   -17.000   0.000   1.000  0.5500E+02  0.0000E+00  0.0000E+00  0.4741E-02  0.2671E-04  0.9913E+00  0.5985E-02  0.3024E-06  0.1035E-02  0.4566E-01  0.1325E-08  0.1362E-07  0.1002E+01 -0.8653E-01  0.8638E-04
      4.586      0.000   -19.000   0.000   1.000  0.5500E+02  0.0000E+00  0.0000E+00  0.4741E-02  0.2671E-04  0.9913E+00  0.5985E-02  0.3024E-06  0.1035E-02  0.4566E-01  0.1325E-08  0.1362E-07  0.1002E+01 -0.8653E-01  0.8638E-04
      4.586      0.000   -21.000   0.000   1.000  0.5500E+02  0.0000E+00  0.0000E+00  0.4741E-02  0.2671E-04  0.9913E+00  0.5985E-02  0.3024E-06  0.1035E-02  0.4566E-01  0.1325E-08  0.1362E-07  0.1002E+01 -0.8653E-01  0.8638E-04
      4.586      0.000   -23.000   0.000   1.000  0.5500E+02  0.0000E+00  0.0000E+00  0.4741E-02  0.2671E-04  0.9913E+00  0.5985E-02  0.3024E-06  0.1035E-02  0.4566E-01  0.1325E-08  0.1362E-07  0.1002E+01 -0.8653E-01  0.8638E-04
      4.586      0.000   -25.000   0.000   1.000  0.5500E+02  0.0000E+00  0.0000E+00  0.4741E-02  0.2671E-04  0.9913E+00  0.5985E-02  0.3024E-06  0.1035E-02  0.4566E-01  0.1325E-08  0.1362E-07  0.1002E+01 -0.8653E-01  0.8638E-04
      4.586      0.000   -27.000   0.000   1.000  0.5500E+02  0.0000E+00  0.0000E+00  0.4741E-02  0.2671E-04  0.9913E+00  0.5985E-02  0.3024E-06  0.1035E-02  0.4566E-01  0.1325E-08  0.1362E-07  0.1002E+01 -0.8653E-01  0.8638E-04
      4.586      0.000   -29.000   0.000   1.000  0.5500E+02  0.0000E+00  0.0000E+00  0.4741E-02  0.2671E-04  0.9913E+00  0.5985E-02  0.3024E-06  0.1035E-02  0.4566E-01  0.1325E-08  0.1362E-07  0.1002E+01 -0.8653E-01  0.8638E-04
      4.586      0.000   -31.000   0.000   1.000  0.5500E+02  0.0000E+00  0.0000E+00  0.4741E-02  0.2671E-04  0.9913E+00  0.5985E-02  0.3024E-06  0.1035E-02  0.4566E-01  0.1325E-08  0.1362E-07  0.1002E+01 -0.8653E-01  0.8638E-04
      4.586      0.000   -33.000   0.000   1.000  0.5500E+02  0.0000E+00  0.0000E+00  0.4741E-02  0.2671E-04  0.9913E+00  0.5985E-02  0.3024E-06  0.1035E-02  0.4566E-01  0.1325E-08  0.1362E-07  0.1002E+01 -0.8653E-01  0.8638E-04
      4.586      0.000   -35.000   0.000   1.000  0.5500E+02  0.0000E+00  0.0000E+00  0.4741E-02  0.2671E-04  0.9913E+00  0.5985E-02  0.3024E-06  0.1035E-02  0.4566E-01  0.1325E-08  0.1362E-07  0.1002E+01 -0.8653E-01  0.8638E-04
      4.586      0.000   -37.000   0.000   1.000  0.5500E+02  0.0000E+00  0.0000E+00  0.4741E-02  0.2671E-04  0.9913E+00  0.5985E-02  0.3024E-06  0.1035E-02  0.4566E-01  0.1325E-08  0.1362E-07  0.1002E+01 -0.8653E-01  0.8638E-04
      4.586      0.000   -39.000   0.000   1.000  0.5500E+02  0.0000E+00  0.0000E+00  0.4741E-02  0.2671E-04  0.9913E+00  0.5985E-02  0.3024E-06  0.1035E-02  0.4566E-01  0.1325E-08  0.1362E-07  0.1002E+01 -0.8653E-01  0.8638E-04
      6.571      0.000    -1.000   0.000   1.000  0.5500E+02  0.0000E+00  0.0000E+00  0.4741E-02  0.2671E-04  0.9913E+00  0.5985E-02  0.3024E-06  0.1035E-02  0.4566E-01  0.1325E-08  0.1362E-07  0.1002E+01 -0.8653E-01  0.8638E-04
      6.571      0.000    -3.000   0.000   1.000  0.5500E+02  0.0000E+00  0.0000E+00  0.4741E-02  0.2671E-04  0.9913E+00  0.5985E-02  0.3024E-06  0.1035E-02  0.4566E-01  0.1325E-08  0.1362E-07  0.1002E+01 -0.8653E-01  0.8638E-04
      6.571      0.000    -5.000   0.000   1.000  0.5500E+02  0.0000E+00  0.0000E+00  0.4741E-02  0.2671E-04  0.9913E+00  0.5985E-02  0.3024E-06  0.1035E-02  0.4566E-01  0.1325E-08  0.1362E-07  0.1002E+01 -0.8653E-01  0.8638E-04
      6.571      0.000    -7.000   0.000   1.000  0.5500E+02  0.0000E+00  0.0000E+00  0.4741E-02  0.2671E-04  0.9913E+00  0.5985E-02  0.3024E-06  0.1035E-02  0.4566E-01  0.1325E-08  0.1362E-07  0.1002E+01 -0.8653E-01  0.8638E-04
      6.571      0.000    -9.000   0.000   1.000  0.5500E+02  0.0000E+00  0.0000E+00  0.4741E-02  0.2671E-04  0.9913E+00  0.5985E-02  0.3024E-06  0.1035E-02  0.4566E-01  0.1325E-08  0.1362E-07  0.1002E+01 -0.8653E-01  0.8638E-04
      6.571      0.000   -11.000   0.000   1.000  0.5500E+02  0.0000E+00  0.0000E+00  0.4741E-02  0.2671E-04  0.9913E+00  0.5985E-02  0.3024E-06  0.1035E-02  0.4566E-01  0.1325E-08  0.1362E-07  0.1002E+01 -0.8653E-01  0.8638E-04
      6.571      0.000   -13.000   0.000   1.000  0.5500E+02  0.0000E+00  0.0000E+00  0.4741E-02  0.2671E-04  0.9913E+00  0.5985E-02  0.3024E-06  0.1035E-02  0.4566E-01  0.1325E-08  0.1362E-07  0.1002E+01 -0.8653E-01  0.8638E-04
      6.571      0.000   -15.000   0.000   1.000  0.5500E+02  0.0000E+00  0.0000E+00  0.4741E-02  0.2671E-04  0.9913E+00  0.5985E-02  0.3024E-06  0.1035E-02  0.4566E-01  0.1325E-08  0.1362E-07  0.1002E+01 -0.8653E-01  0.8638E-04
      6.571      0.000   -17.000   0.000   1.000  0.5500E+02  0.0000E+00  0.0000E+00  0.4741E-02  0.2671E-04  0.9913E+00  0.5985E-02  0.3024E-06  0.1035E-02  0.4566E-01  0.1325E-08  0.1362E-07  0.1002E+01 -0.8653E-01  0.8638E-04
      6.571      0.000   -19.000   0.000   1.000  0.5500E+02  0.0000E+00  0.0000E+00  0.4741E-02  0.2671E-04  0.9913E+00  0.5985E-02  0.3024E-06  0.1035E-02  0.4566E-01  0.1325E-08  0.1362E-07  0.1002E+01 -0.8653E-01  0.8638E-04
      6.571      0.000   -21.000   0.000   1.000  0.5500E+02  0.0000E+00  0.0000E+00  0.4741E-02  0.2671E-04  0.9913E+00  0.5985E-02  0.3024E-06  0.1035E-02  0.4566E-01  0.1325E-08  0.1362E-07  0.1002E+01 -0.8653E-01  0.8638E-04
      6.571      0.000   -23.000   0.000   1.000  0.5500E+02  0.0000E+00  0.0000E+00  0.4741E-02  0.2671E-04  0.9913E+00  0.5985E-02  0.3024E-06  0.1035E-02  0.4566E-01  0.1325E-08  0.1362E-07  0.1002E+01 -0.8653E-01  0.8638E-04
      6.571      0.000   -25.000   0.000   1.000  0.5500E+02  0.0000E+00  0.0000E+00  0.4741E-02  0.2671E-04  0.9913E+00  0.5985E-02  0.3024E-06  0.1035E-02  0.4566E-01  0.1325E-08  0.1362E-07  0.1002E+01 -0.8653E-01  0.8638E-04
      6.571      0.000   -27.000   0.000   1.000  0.5500E+02  0.0000E+00  0.0000E+00  0.4741E-02  0.2671E-04  0.9913E+00  0.5985E-02  0.3024E-06  0.1035E-02  0.4566E-01  0.1325E-08  0.1362E-07  0.1002E+01 -0.8653E-01  0.8638E-04
      6.571      0.000   -29.000   0.000   1.000  0.5500E+02  0.0000E+00  0.0000E+00  0.4741E-02  0.2671E-04  0.9913E+00  0.5985E-02  0.3024E-06  0.1035E-02  0.4566E-01  0.1325E-08  0.1362E-07  0.1002E+01 -0.8653E-01  0.8638E-04
      6.571      0.000   -31.000   0.000   1.000  0.5500E+02  0.0000E+00  0.0000E+00  0.4741E-02  0.2671E-04  0.9913E+00  0.5985E-02  0.3024E-06  0.1035E-02  0.4566E-01  0.1325E-08  0.1362E-07  0.1002E+01 -0.8653E-01  0.8638E-04
      6.571      0.000   -33.000   0.000   1.000  0.5500E+02  0.0000E+00  0.0000E+00  0.4741E-02  0.2671E-04  0.9913E+00  0.5985E-02  0.3024E-06  0.1035E-02  0.4566E-01  0.1325E-08  0.1362E-07  0.1002E+01 -0.8653E-01  0.8638E-04
      6.571      0.000   -35.000   0.000   1.000  0.5500E+02  0.0000E+00  0.0000E+00  0.4741E-02  0.2671E-04  0.9913E+00  0.5985E-02  0.3024E-06  0.1035E-02  0.4566E-01  0.1325E-08  0.1362E-07  0.1002E+01 -0.8653E-01  0.8638E-04
      6.571      0.000   -37.000   0.000   1.000  0.5500E+02  0.0000E+00  0.0000E+00  0.4741E-02  0.2671E-04  0.9913E+00  0.5985E-02  0.3024E-06  0.1035E-02  0.4566E-01  0.1325E-08  0.1362E-07  0.1002E+01 -0.8653E-01  0.8638E-04
      6.571      0.000   -39.000   0.000   1.000  0.5500E+02  0.0000E+00  0.0000E+00  0.4741E-02  0.2671E-04  0.9913E+00  0.5985E-02  0.3024E-06  0.1035E-02  0.4566E-01  0.1325E-08  0.1362E-07  0.1002E+01 -0.8653E-01  0.8638E-04
      8.982      0.000    -1.000   0.000   1.000  0.5500E+02  0.0000E+00  0.0000E+00  0.4741E-02  0.2671E-04  0.9913E+00  0.5985E-02  0.3024E-06  0.1035E-02  0.4566E-01  0.1325E-08  0.1362E-07  0.1002E+01 -0.8653E-01  0.8638E-04
      8.982      0.000    -3.000   0.000   1.000  0.5500E+02  0.0000E+00  0.0000E+00  0.4741E-02  0.2671E-04  0.9913E+00  0.5985E-02  0.3024E-06  0.1035E-02  0.4566E-01  0.1325E-08  0.1362E-07  0.1002E+01 -0.8653E-01  0.8638E-04
      8.982      0.000    -5.000   0.000   1.000  0.5500E+02  0.0000E+00  0.0000E+00  0.4741E-02  0.2671E-04  0.9913E+00  0.5985E-02  0.3024E-06  0.1035E-02  0.4566E-01  0.1325E-08  0.1362E-07  0.1002E+01 -0.8653E-01  0.8638E-04
      8.982      0.000    -7.000   0.000   1.000  0.5500E+02  0.0000E+00  0.0000E+00  0.4741E-02  0.2671E-04  0.9913E+00  0.5985E-02  0.3024E-06  0.1035E-02  0.4566E-01  0.1325E-08  0.1362E-07  0.1002E+01 -0.8653E-01  0.8638E-04
      8.982      0.000    -9.000   0.000   1.000  0.5500E+02  0.0000E+00  0.0000E+00  0.4741E-02  0.2671E-04  0.9913E+00  0.5985E-02  0.3024E-06  0.1035E-02  0.4566E-01  0.1325E-08  0.1362E-07  0.1002E+01 -0.8653E-01  0.8638E-04
      8.982      0.000   -11.000   0.000   1.000  0.5500E+02  0.0000E+00  0.0000E+00  0.4741E-02  0.2671E-04  0.9913E+00  0.5985E-02  0.3024E-06  0.1035E-02  0.4566E-01  0.1325E-08  0.1362E-07  0.1002E+01 -0.8653E-01  0.8638E-04
      8.982      0.000   -13.000   0.000   1.000  0.5500E+02  0.0000E+00  0.0000E+00  0.4741E-02  0.2671E-04  0.9913E+00  0.5985E-02  0.3024E-06  0.1035E-02  0.4566E-01  0.1325E-08  0.1362E-07  0.1002E+01 -0.8653E-01  0.8638E-04
      8.982      0.000   -15.000   0.000   1.000  0.5500E+02  0.0000E+00  0.0000E+00  0.4741E-02  0.2671E-04  0.9913E+00  0.5985E-02  0.3024E-06  0.1035E-02  0.4566E-01  0.1325E-08  0.1362E-07  0.1002E+01 -0.8653E-01  0.8638E-04
      8.982      0.000   -17.000   0.000   1.000  0.5500E+02  0.0000E+00  0.0000E+00  0.4741E-02  0.2671E-04  0.9913E+00  0.5985E-02  0.3024E-06  0.1035E-02  0.4566E-01  0.1325E-08  0.1362E-07  0.1002E+01 -0.8653E-01  0.8638E-04
      8.982      0.000   -19.000   0.000   1.000  0.5500E+02  0.0000E+00  0.0000E+00  0.4741E-02  0.2671E-04  0.9913E+00  0.5985E-02  0.3024E-06  0.1035E-02  0.4566E-01  0.1325E-08  0.1362E-07  0.1002E+01 -0.8653E-01  0.8638E-04
      8.982      0.000   -21.000   0.000   1.000  0.5500E+02  0.0000E+00  0.0000E+00  0.4741E-02  0.2671E-04  0.9913E+00  0.5985E-02  0.3024E-06  0.1035E-02  0.4566E-01  0.1325E-08  0.1362E-07  0.1002E+01 -0.8653E-01  0.8638E-04
      8.982      0.000   -23.000   0.000   1.000  0.5500E+02  0.0000E+00  0.0000E+00  0.4741E-02  0.2671E-04  0.9913E+00  0.5985E-02  0.3024E-06  0.1035E-02  0.4566E-01  0.1325E-08  0.1362E-07  0.1002E+01 -0.8653E-01  0.8638E-04
      8.982      0.000   -25.000   0.000   1.000  0.5500E+02  0.0000E+00  0.0000E+00  0.4741E-02  0.2671E-04  0.9913E+00  0.5985E-02  0.3024E-06  0.1035E-02  0.4566E-01  0.1325E-08  0.1362E-07  0.1002E+01 -0.8653E-01  0.8638E-04
      8.982      0.000   -27.000   0.000   1.000  0.5500E+02  0.0000E+00  0.0000E+00  0.4741E-02  0.2671E-04  0.9913E+00  0.5985E-02  0.3024E-06  0.1035E-02  0.4566E-01  0.1325E-08  0.1362E-07  0.1002E+01 -0.8653E-01  0.8638E-04
      8.982      0.000   -29.000   0.000   1.000  0.5500E+02  0.0000E+00  0.0000E+00  0.4741E-02  0.2671E-04  0.9913E+00  0.5985E-02  0.3024E-06  0.1035E-02  0.4566E-01  0.1325E-08  0.1362E-07  0.1002E+01 -0.8653E-01  0.8638E-04
      8.982      0.000   -31.000   0.000   1.000  0.5500E+02  0.0000E+00  0.0000E+00  0.4741E-02  0.2671E-04  0.9913E+00  0.5985E-02  0.3024E-06  0.1035E-02  0.4566E-01  0.1325E-08  0.1362E-07  0.1002E+01 -0.8653E-01  0.8638E-04
      8.982      0.000   -33.000   0.000   1.000  0.5500E+02  0.0000E+00  0.0000E+00  0.4741E-02  0.2671E-04  0.9913E+00  0.5985E-02  0.3024E-06  0.1035E-02  0.4566E-01  0.1325E-08  0.1362E-07  0.1002E+01 -0.8653E-01  0.8638E-04
      8.982      0.000   -35.000   0.000   1.000  0.5500E+02  0.0000E+00  0.0000E+00  0.4741E-02  0.2671E-04  0.9913E+00  0.5985E-02  0.3024E-06  0.1035E-02  0.4566E-01  0.1325E-08  0.1362E-07  0.1002E+01 -0.8653E-01  0.8638E-04
      8.982      0.000   -37.000   0.000   1.000  0.5500E+02  0.0000E+00  0.0000E+00  0.4741E-02  0.2671E-04  0.9913E+00  0.5985E-02  0.3024E-06  0.1035E-02  0.4566E-01  0.1325E-08  0.1362E-07  0.1002E+01 -0.8653E-01  0.8638E-04
      8.982      0.000   -39.000   0.000   1.000  0.5500E+02  0.0000E+00  0.0000E+00  0.4741E-02  0.2671E-04  0.9913E+00  0.5985E-02  0.3024E-06  0.1035E-02  0.4566E-01  0.1325E-08  0.1362E-07  0.1002E+01 -0.8653E-01  0.8638E-04
     11.910      0.000    -1.000   0.000   1.000  0.5500E+02  0.0000E+00  0.0000E+00  0.4741E-02  0.2671E-04  0.9913E+00  0.5985E-02  0.3024E-06  0.1035E-02  0.4566E-01  0.1325E-08  0.1362E-07  0.1002E+01 -0.8653E-01  0.8638E-04
     11.910      0.000    -3.000   0.000   1.000  0.5500E+02  0.0000E+00  0.0000E+00  0.4741E-02  0.2671E-04  0.9913E+00  0.5985E-02  0.3024E-06  0.1035E-02  0.4566E-01  0.1325E-08  0.1362E-07  0.1002E+01 -0.8653E-01  0.8638E-04
     11.910      0.000    -5.000   0.000   1.000  0.5500E+02  0.0000E+00  0.0000E+00  0.4741E-02  0.2671E-04  0.9913E+00  0.5985E-02  0.3024E-06  0.1035E-02  0.4566E-01  0.1325E-08  0.1362E-07  0.1002E+01 -0.8653E-01  0.8638E-04
     11.910      0.000    -7.000   0.000   1.000  0.5500E+02  0.0000E+00  0.0000E+00  0.4741E-02  0.2671E-04  0.9913E+00  0.5985E-02  0.3024E-06  0.1035E-02  0.4566E-01  0.1325E-08  0.1362E-07  0.1002E+01 -0.8653E-01  0.8638E-04
     11.910      0.000    -9.000   0.000   1.000  0.5500E+02  0.0000E+00  0.0000E+00  0.4741E-02  0.2671E-04  0.9913E+00  0.5985E-02  0.3024E-06  0.1035E-02  0.4566E-01  0.1325E-08  0.1362E-07  0.1002E+01 -0.8653E-01  0.8638E-04
     11.910      0.000   -11.000   0.000   1.000  0.5500E+02  0.0000E+00  0.0000E+00  0.4741E-02  0.2671E-04  0.9913E+00  0.5985E-02  0.3024E-06  0.1035E-02  0.4566E-01  0.1325E-08  0.1362E-07  0.1002E+01 -0.8653E-01  0.8638E-04
     11.910      0.000   -13.000   0.000   1.000  0.5500E+02  0.0000E+00  0.0000E+00  0.4741E-02  0.2671E-04  0.9913E+00  0.5985E-02  0.3024E-06  0.1035E-02  0.4566E-01  0.1325E-08  0.1362E-07  0.1002E+01 -0.8653E-01  0.8638E-04
     11.910      0.000   -15.000   0.000   1.000  0.5500E+02  0.0000E+00  0.0000E+00  0.4741E-02  0.2671E-04  0.9913E+00  0.5985E-02  0.3024E-06  0.1035E-02  0.4566E-01  0.1325E-08  0.1362E-07  0.1002E+01 -0.8653E-01  0.8638E-04