
          ---- Mineral saturation index (log(Q/K)) vs. grid blocks at specified times ----

 
VARIABLES =X,       Y,      Z,       calcite    ,quartz     ,k-feldspar ,smectite-ca,muscovite  ,siderite-2 ,albite~low ,kaolinite  ,dolomite-2 ,chlorite   ,dawsonite  ,oligoclase ,illite     ,hematite   ,ankerite-2 ,magnesite  ,chalcedony ,
ZONE T= "0.499669E+02 yr"  F=POINT
      0.500      0.000     -1.000    0.000000    0.557253   -0.570600   -0.008592   -1.817331    0.000000   -0.766360    0.238491   -5.607071  -19.212388    0.072350  -16.537562    0.499673   -7.431605   -0.952939   -4.108488    0.448799
      0.500      0.000     -3.000   -0.000001    0.558760   -0.568789   -0.008147   -1.823264    0.000004   -0.764577    0.233715   -5.602268  -19.202854    0.069389  -16.534939    0.497977   -7.431627   -0.951495   -4.103685    0.450306
      0.500      0.000     -5.000    0.000000    0.590124   -0.511707   -0.002970   -1.900382    0.000083   -0.708359    0.160679   -5.598857  -19.254688    0.033105  -16.383129    0.471305   -7.447769   -0.950417   -4.100274    0.481670
      0.500      0.000     -7.000    0.000000    1.105675    1.085827    0.106234   -1.274603   -0.000001    0.851480    0.165041   -9.706251  -29.153989   -0.000583  -10.037547    0.443146   -7.671137   -2.182693   -8.207668    0.997221
      0.500      0.000     -9.000    0.000000    1.111866    0.554843   -0.000022   -2.901944   -0.000001    0.320783   -0.918575   -6.479242  -22.158515   -0.550428  -13.243737    0.010216   -7.668690   -1.214591   -4.980659    1.003412
      0.500      0.000    -11.000    0.000000    1.118466    0.518021    0.000213   -3.053372   -0.000002    0.283957   -1.020020   -6.190044  -21.527073   -0.607767  -13.491735   -0.025610   -7.667643   -1.127832   -4.691461    1.010012
      0.500      0.000    -13.000    0.000000    1.121455    0.500832    0.000374   -3.120211   -0.000002    0.267005   -1.063390   -6.067060  -21.256626   -0.633937  -13.602964   -0.042114   -7.665970   -1.090937   -4.568477    1.013001
      0.500      0.000    -15.000    0.000000    1.125638    0.500096    0.000472   -3.150082   -0.000002    0.266137   -1.084367   -6.031543  -21.184241   -0.647723  -13.626836   -0.051322   -7.666213   -1.080282   -4.532960    1.017184
      0.500      0.000    -17.000    0.000000    1.123262    0.498670    0.000612   -3.131200   -0.000002    0.265234   -1.068111   -6.063183  -21.251208   -0.640170  -13.616218   -0.046916   -7.665589   -1.089774   -4.564600    1.014808
      0.500      0.000    -19.000    0.000000    1.124855    0.506968    0.000750   -3.115948   -0.000004    0.273452   -1.058112   -6.108986  -21.359500   -0.635848  -13.574091   -0.045047   -7.667692   -1.103516   -4.610403    1.016400
      0.500      0.000    -21.000    0.000000    1.126706    0.513679    0.000973   -3.108174   -0.000007    0.280011   -1.053577   -6.138434  -21.431953   -0.634125  -13.543807   -0.044603   -7.669905   -1.112352   -4.639851    1.018252
      0.500      0.000    -23.000    0.000001    1.124727    0.511801    0.001449   -3.094814    0.002787    0.278453   -1.041878   -6.155930  -21.466186   -0.627719  -13.540786   -0.040855   -7.666051   -1.115645   -4.657348    1.016273
      0.500      0.000    -25.000    0.000001    1.109483    0.487548    0.002450   -3.043117    0.006682    0.256157   -0.993725   -6.177240  -21.477216   -0.600439  -13.588351   -0.021976   -7.653527   -1.119311   -4.678658    1.001029
      0.500      0.000    -27.000    0.000001    1.125984    0.516107    0.004098   -3.088559    0.028776    0.282658   -1.037585   -6.168234  -21.437262   -0.625358  -13.521430   -0.038104   -7.618105   -1.101144   -4.669651    1.017530
      0.500      0.000    -29.000    0.000001    1.116276    0.502676    0.008878   -3.050713    0.104020    0.270468   -1.004016   -6.175994  -21.244199   -0.606130  -13.540623   -0.020911   -7.464368   -1.050801   -4.677412    1.007822
      0.500      0.000    -31.000    0.000001    1.072618    0.461406    0.065611   -2.821119    0.300796    0.234392   -0.813385   -6.208943  -20.697011   -0.499442  -13.513168    0.101991   -7.060367   -0.922943   -4.710361    0.964163
      0.500      0.000    -33.000    0.000002    0.980253    0.852101    1.044281   -0.875540    0.277666    0.634335    0.569164   -6.288677  -19.780041    0.218159  -10.583802    1.475923   -7.118261   -0.963054   -4.790095    0.871799
      0.500      0.000    -35.000    0.000001    1.060823    0.462490    0.102894   -2.721848    0.302740    0.236791   -0.737001   -6.218419  -20.654222   -0.458565  -13.432069    0.163622   -7.053814   -0.924425   -4.719837    0.952369
      0.500      0.000    -37.000    0.000001    1.115604    0.500404    0.007932   -3.050325    0.061460    0.268276   -1.002600   -6.176790  -21.357022   -0.605129  -13.549251   -0.021609   -7.551093   -1.080832   -4.678208    1.007150
      0.500      0.000    -39.000    0.000001    1.104662    0.479456    0.001563   -3.024876    0.023329    0.248646   -0.976270   -6.192095  -21.474324   -0.589571  -13.605620   -0.017031   -7.623696   -1.112115   -4.693513    0.996208
      1.607      0.000     -1.000   -0.000001    0.557251   -0.570602   -0.008593   -1.817319    0.000000   -0.766364    0.238500   -5.607087  -19.212414    0.072353  -16.537567    0.499676   -7.431595   -0.952943   -4.108503    0.448797
      1.607      0.000     -3.000   -0.000001    0.558746   -0.568810   -0.008150   -1.823222    0.000004   -0.764599    0.233750   -5.602283  -19.202845    0.069406  -16.534985    0.497992   -7.431613   -0.951500   -4.103700    0.450292
      1.607      0.000     -5.000    0.000000    0.589656   -0.512570   -0.003045   -1.899237    0.000081   -0.709210    0.161776   -5.598889  -19.253956    0.033655  -16.385454    0.471701   -7.447562   -0.950427   -4.100306    0.481202
      1.607      0.000     -7.000    0.000000    1.105643    1.085714    0.106123   -1.274727   -0.000001    0.851367    0.164966   -9.706124  -29.153865   -0.000583  -10.038090    0.443042   -7.671167   -2.182655   -8.207541    0.997189
      1.607      0.000     -9.000    0.000000    1.113512    0.557727   -0.000031   -2.906618   -0.000001    0.323451   -0.923142   -6.478600  -22.160276   -0.553031  -13.237000    0.008444   -7.669370   -1.214398   -4.980017    1.005058
      1.607      0.000    -11.000    0.000000    1.117499    0.516827    0.000220   -3.049305   -0.000002    0.282879   -1.016530   -6.193224  -21.532199   -0.605776  -13.492885   -0.024270   -7.667254   -1.128786   -4.694642    1.009045
      1.607      0.000    -13.000    0.000000    1.121051    0.500389    0.000376   -3.118340   -0.000002    0.266607   -1.061820   -6.068740  -21.259678   -0.633028  -13.603142   -0.041519   -7.665862   -1.091441   -4.570157    1.012597
      1.607      0.000    -15.000    0.000000    1.126198    0.501169    0.000466   -3.151498   -0.000002    0.267131   -1.085846   -6.031632  -21.185476   -0.648542  -13.624096   -0.051874   -7.666437   -1.080308   -4.533049    1.017744
      1.607      0.000    -17.000    0.000000    1.127460    0.505582    0.000578   -3.144252   -0.000003    0.271605   -1.080432   -6.059168  -21.250637   -0.647175  -13.601522   -0.051704   -7.667376   -1.088570   -4.560585    1.019006
      1.607      0.000    -19.000    0.000000    1.123140    0.504260    0.000761   -3.110342   -0.000004    0.270958   -1.052929   -6.111153  -21.360978   -0.632875  -13.579503   -0.043022   -7.667002   -1.104165   -4.612570    1.014686
      1.607      0.000    -21.000    0.000001    1.123242    0.507933    0.000990   -3.097308   -0.000006    0.274707   -1.043282   -6.141934  -21.433791   -0.628197  -13.556178   -0.040660   -7.668792   -1.113401   -4.643352    1.014788
      1.607      0.000    -23.000    0.000001    1.111145    0.489425    0.001562   -3.053053    0.002297    0.257787   -1.002539   -6.167604  -21.465667   -0.605359  -13.588755   -0.025396   -7.660974   -1.119490   -4.669021    1.002690
      1.607      0.000    -25.000    0.000000    1.128995    0.519932    0.002115   -3.102867    0.001373    0.286069   -1.050255   -6.161571  -21.494396   -0.632634  -13.518241   -0.044247   -7.672393   -1.118328   -4.662988    1.020541
      1.607      0.000    -27.000    0.000001    1.123732    0.512235    0.003867   -3.082245    0.031163    0.279073   -1.031503   -6.169737  -21.429911   -0.621887  -13.530387   -0.035888   -7.612167   -1.099924   -4.671155    1.015278
      1.607      0.000    -29.000    0.000001    1.124152    0.515316    0.008065   -3.075917    0.083745    0.282110   -1.027491   -6.170017  -21.298079   -0.619540  -13.514723   -0.030808   -7.508279   -1.063200   -4.671435    1.015697
      1.607      0.000    -31.000    0.000001    1.121930    0.532985    0.046872   -3.002433    0.260651    0.300044   -0.975804   -6.170858  -20.827427   -0.590708  -13.395845    0.022317   -7.160393   -0.939619   -4.672276    1.013476
      1.607      0.000    -33.000    0.000002    0.980190    0.739554    0.835877   -1.231122    0.330433    0.521843    0.326217   -6.283580  -19.809091    0.092291  -11.263371    1.206459   -6.988466   -0.924588   -4.784999    0.871736
      1.607      0.000    -35.000    0.000000    1.099950    0.824384    0.627290   -1.952310    0.271812    0.594171   -0.257267   -6.187680  -20.135652   -0.227231  -11.507987    0.801157   -7.127895   -0.936853   -4.689097    0.991496
      1.607      0.000    -37.000    0.000001    1.118830    0.505496    0.007132   -3.061595    0.065386    0.272962   -1.013066   -6.173896  -21.346040   -0.611133  -13.539404   -0.026223   -7.543845   -1.077216   -4.675313    1.010376
      1.607      0.000    -39.000    0.000001    1.103440    0.477596    0.001580   -3.020722    0.006545    0.246930   -0.972501   -6.194063  -21.517828   -0.587509  -13.609028   -0.015553   -7.656609   -1.124454   -4.695481    0.994986
      2.953      0.000     -1.000   -0.000001    0.557251   -0.570593   -0.008593   -1.817305    0.000000   -0.766355    0.238506   -5.607117  -19.212475    0.072358  -16.537523    0.499679   -7.431592   -0.952953   -4.108534    0.448797
      2.953      0.000     -3.000   -0.000001    0.558698   -0.568887   -0.008158   -1.823092    0.000004   -0.764674    0.233864   -5.602313  -19.202784    0.069462  -16.535165    0.498036   -7.431575   -0.951509   -4.103730    0.450244
      2.953      0.000     -5.000    0.000000    0.588499   -0.514712   -0.003229   -1.896424    0.000077   -0.711318    0.164476   -5.598931  -19.252054    0.035007  -16.391237    0.472677   -7.447043   -0.950443   -4.100348    0.480045
      2.953      0.000     -7.000    0.000000    1.104699    1.082594    0.105827   -1.276627   -0.000001    0.848359    0.164455   -9.697040  -29.132416   -0.000581  -10.050971    0.442891   -7.670827   -2.179930   -8.198457    0.996245
      2.953      0.000     -9.000    0.000000    1.112948    0.557592   -0.000030   -2.902686   -0.000001    0.323373   -0.920123   -6.483818  -22.170832   -0.551309  -13.234477    0.009562   -7.669217   -1.215964   -4.985235    1.004494
      2.953      0.000    -11.000    0.000000    1.118262    0.518456    0.000211   -3.050696   -0.000002    0.284400   -1.018177   -6.194553  -21.536728   -0.606690  -13.488151   -0.024919   -7.667630   -1.129184   -4.695971    1.009808
      2.953      0.000    -13.000    0.000000    1.123022    0.503822    0.000357   -3.123973   -0.000002    0.269775   -1.067313   -6.067797  -21.261863   -0.636086  -13.595282   -0.043648   -7.666861   -1.091158   -4.569214    1.014568
      2.953      0.000    -15.000    0.000000    1.123652    0.497198    0.000485   -3.142967   -0.000002    0.263480   -1.077991   -6.035312  -21.188885   -0.644030  -13.631816   -0.048832   -7.665488   -1.081412   -4.536729    1.015198
      2.953      0.000    -17.000    0.000000    1.123268    0.498789    0.000606   -3.130973   -0.000002    0.265343   -1.068007   -6.063569  -21.252363   -0.640039  -13.615705   -0.046856   -7.665718   -1.089890   -4.564986    1.014814
      2.953      0.000    -19.000    0.000000    1.123556    0.504943    0.000757   -3.111869   -0.000004    0.271585   -1.054384   -6.110175  -21.359059   -0.633708  -13.578164   -0.043517   -7.666962   -1.103872   -4.611593    1.015102
      2.953      0.000    -21.000    0.000001    1.123891    0.509047    0.000977   -3.099338   -0.000006    0.275732   -1.045250   -6.141220  -21.433307   -0.629294  -13.553751   -0.041387   -7.669002   -1.113187   -4.642638    1.015437
      2.953      0.000    -23.000    0.000001    1.114557    0.494948    0.001479   -3.063982    0.005560    0.262883   -1.012755   -6.163848  -21.455826   -0.611142  -13.577357   -0.029401   -7.655835   -1.116079   -4.665266    1.006102
      2.953      0.000    -25.000    0.000001    1.112685    0.492630    0.002285   -3.053305    0.007290    0.260835   -1.003152   -6.174118  -21.476568   -0.605658  -13.578214   -0.025834   -7.654183   -1.117949   -4.675536    1.004231
      2.953      0.000    -27.000    0.000001    1.121835    0.508726    0.003713   -3.076891    0.031229    0.275801   -1.026110   -6.170850  -21.431042   -0.618614  -13.539258   -0.034047   -7.612148   -1.100212   -4.672268    1.013381
      2.953      0.000    -29.000    0.000001    1.126457    0.518475    0.006786   -3.085164    0.105114    0.284971   -1.035700   -6.167645  -21.245709   -0.623958  -13.510709   -0.035021   -7.466642   -1.047530   -4.669062    1.018002
      2.953      0.000    -31.000    0.000001    1.122861    0.524205    0.028107   -3.037412    0.214796    0.291152   -1.000276   -6.170299  -20.957138   -0.603996  -13.454147   -0.003151   -7.249925   -0.971549   -4.671716    1.014407
      2.953      0.000    -33.000    0.000001    0.946069    0.542025    0.580339   -1.561243    0.305487    0.327258    0.129537   -6.307169  -20.116812   -0.002994  -12.239480    0.913763   -7.012172   -0.949127   -4.808586    0.837615
      2.953      0.000    -35.000    0.000001    1.082880    0.471137    0.052279   -2.875370    0.213641    0.242956   -0.858418   -6.201554  -20.924330   -0.525243  -13.518791    0.073003   -7.235503   -0.981734   -4.702971    0.974426
      2.953      0.000    -37.000    0.000000    1.120841    0.998731    0.873747   -1.599128    0.112015    0.765942   -0.040161   -6.171112  -20.246145   -0.124968  -10.593450    1.097736   -7.450712   -1.043741   -4.672529    1.012387
      2.953      0.000    -39.000    0.000001    1.130014    0.522107    0.001115   -3.101686    0.006547    0.288095   -1.049446   -6.173759  -21.522557   -0.631505  -13.511252   -0.045736   -7.666742   -1.118362   -4.675176    1.021560
      4.586      0.000     -1.000   -0.000001    0.557253   -0.570575   -0.008595   -1.817279    0.000000   -0.766337    0.238516   -5.607176  -19.212591    0.072368  -16.537436    0.499686   -7.431588   -0.952970   -4.108593    0.448798
      4.586      0.000     -3.000   -0.000001    0.558602   -0.569046   -0.008175   -1.822833    0.000004   -0.764830    0.234093   -5.602367  -19.202646    0.069575  -16.535543    0.498126   -7.431498   -0.951525   -4.103783    0.450148
      4.586      0.000     -5.000    0.000000    0.586409   -0.518592   -0.003561   -1.891374    0.000071   -0.715139    0.169334   -5.598950  -19.248459    0.037430  -16.401741    0.474432   -7.446090   -0.950453   -4.100366    0.477955
      4.586      0.000     -7.000    0.000000    1.105401    1.084932    0.105803   -1.275542   -0.000001    0.850584    0.164448   -9.703453  -29.148253   -0.000581  -10.041800    0.442786   -7.671272   -2.181854   -8.204870    0.996947
      4.586      0.000     -9.000    0.000000    1.112526    0.558014   -0.000032   -2.898455   -0.000001    0.323826   -0.917112   -6.490452  -22.184471   -0.549598  -13.229694    0.010697   -7.669013   -1.217954   -4.991869    1.004072
      4.586      0.000    -11.000    0.000000    1.117893    0.518577    0.000209   -3.047775   -0.000002    0.284546   -1.016076   -6.198557  -21.544673   -0.605451  -13.485490   -0.024076   -7.667449   -1.130385   -4.699974    1.009439
      4.586      0.000    -13.000    0.000000    1.123300    0.504720    0.000354   -3.123808   -0.000002    0.270618   -1.067564   -6.069547  -21.266315   -0.636161  -13.592003   -0.043705   -7.667027   -1.091683   -4.570964    1.014846
      4.586      0.000    -15.000    0.000000    1.126016    0.501146    0.000460   -3.150222   -0.000002    0.267106   -1.084915   -6.032983  -21.189117   -0.647825  -13.623459   -0.051482   -7.666790   -1.080714   -4.534401    1.017562
      4.586      0.000    -17.000    0.000000    1.123788    0.499566    0.000596   -3.133037   -0.000002    0.266043   -1.069913   -6.061912  -21.249542   -0.641057  -13.614545   -0.047509   -7.665880   -1.089392   -4.563329    1.015334
      4.586      0.000    -19.000    0.000000    1.125296    0.507600    0.000727   -3.117912   -0.000004    0.274010   -1.059923   -6.107021  -21.355889   -0.636766  -13.573416   -0.045633   -7.667843   -1.102926   -4.608438    1.016842
      4.586      0.000    -21.000    0.000001    1.121191    0.504449    0.000978   -3.091588   -0.000002    0.271473   -1.037829   -6.142317  -21.430116   -0.625035  -13.564256   -0.038430   -7.667739   -1.113514   -4.643734    1.012737
      4.586      0.000    -23.000    0.000001    1.124457    0.511308    0.001326   -3.094684   -0.000005    0.277978   -1.041765   -6.154813  -21.469187   -0.627610  -13.542375   -0.040733   -7.671120   -1.117265   -4.656231    1.016002
      4.586      0.000    -25.000    0.000000    1.106515    0.921322    0.779254   -1.718816    0.026204    0.690293   -0.108630   -6.176361  -20.540788   -0.157352  -10.967266    0.990600   -7.612407   -1.105383   -4.677778    0.998061
      4.586      0.000    -27.000    0.000000    1.110388    0.577443    0.159154   -2.779376    0.040502    0.345955   -0.818217   -6.178409  -21.224653   -0.512466  -13.054395    0.180695   -7.588037   -1.095989   -4.679826    1.001934
      4.586      0.000    -29.000    0.000000    1.119150    0.858161    0.629619   -2.007786    0.098169    0.625588   -0.311327   -6.172683  -20.554210   -0.260485  -11.426099    0.782433   -7.476709   -1.053904   -4.674100    1.010695
      4.586      0.000    -31.000    0.000000    1.128915    0.530580    0.020962   -3.068211    0.177042    0.296756   -1.026394   -6.165381  -21.054461   -0.618994  -13.454356   -0.019213   -7.325646   -0.996502   -4.666798    1.020461
      4.586      0.000    -33.000    0.000000    1.085035    0.823137    0.671666   -1.831019    0.301354    0.594679   -0.162198   -6.200186  -20.031359   -0.174982  -11.420243    0.875280   -7.070580   -0.919925   -4.701603    0.976581
      4.586      0.000    -35.000    0.000000    1.090891    0.598042    0.253633   -2.558547    0.171275    0.368921   -0.653762   -6.195618  -20.804393   -0.424782  -12.807520    0.325534   -7.323335   -1.009610   -4.697035    0.982437
      4.586      0.000    -37.000    0.000000    1.130789    0.523763    0.004339   -3.102852    0.044041    0.289693   -1.050800   -6.163780  -21.403900   -0.632460  -13.505909   -0.043305   -7.591705   -1.089123   -4.665197    1.022335
      4.586      0.000    -39.000    0.000002    1.107372    0.484628    0.001342   -3.032098    0.003710    0.253465   -0.983720   -6.192938  -21.527958   -0.594003  -13.592196   -0.019977   -7.663049   -1.126101   -4.694356    0.998918
      6.571      0.000     -1.000   -0.000001    0.557252   -0.570552   -0.008598   -1.817232    0.000000   -0.766314    0.238537   -5.607264  -19.212757    0.072386  -16.537316    0.499697   -7.431579   -0.952997   -4.108681    0.448798
      6.571      0.000     -3.000   -0.000001    0.558435   -0.569322   -0.008204   -1.822390    0.000004   -0.765102    0.234486   -5.602449  -19.202386    0.069767  -16.536208    0.498279   -7.431365   -0.951550   -4.103865    0.449981
      6.571      0.000     -5.000    0.000000    0.583097   -0.524767   -0.004085   -1.883437    0.000060   -0.721219    0.176991   -5.598853  -19.242412    0.041228  -16.418516    0.477197   -7.444550   -0.950431   -4.100270    0.474642
      6.571      0.000     -7.000    0.000000    1.104596    1.082366    0.105444   -1.277339   -0.000001    0.848085    0.163705   -9.695224  -29.128988   -0.000578  -10.052723    0.442607   -7.671020   -2.179385   -8.196642    0.996142
      6.571      0.000     -9.000    0.000000    1.112179    0.559745   -0.000038   -2.890934   -0.000001    0.325558   -0.912013   -6.504662  -22.215956   -0.546678  -13.217816    0.012479   -7.669249   -1.222217   -5.006079    1.003725
      6.571      0.000    -11.000    0.000000    1.117196    0.518686    0.000206   -3.042332   -0.000001    0.284701   -1.012070   -6.205902  -21.560273   -0.603006  -13.481130   -0.022521   -7.667520   -1.132589   -4.707319    1.008742
      6.571      0.000    -13.000    0.000000    1.120941    0.501770    0.000364   -3.114148   -0.000002    0.267936   -1.059299   -6.076431  -21.277344   -0.631301  -13.595307   -0.040455   -7.666279   -1.093748   -4.577848    1.012487
      6.571      0.000    -15.000    0.000000    1.125466    0.500515    0.000460   -3.148077   -0.000002    0.266520   -1.083172   -6.034071  -21.190490   -0.646698  -13.624186   -0.050697   -7.666621   -1.081040   -4.535488    1.017012
      6.571      0.000    -17.000    0.000000    1.127150    0.504729    0.000557   -3.144799   -0.000003    0.270756   -1.080738   -6.055485  -21.242271   -0.647038  -13.605289   -0.051573   -7.667438   -1.087464   -4.556902    1.018696
      6.571      0.000    -19.000    0.000000    1.127350    0.510618    0.000690   -3.125665   -0.000004    0.276749   -1.066973   -6.101778  -21.348260   -0.640634  -13.568683   -0.048219   -7.668689   -1.101353   -4.603195    1.018896
      6.571      0.000    -21.000    0.000001    1.120704    0.503419    0.000951   -3.091219   -0.000005    0.270492   -1.037335   -6.140064  -21.423402   -0.624672  -13.567639   -0.038067   -7.667247   -1.112840   -4.641481    1.012250
      6.571      0.000    -23.000    0.000001    1.119375    0.502524    0.001273   -3.080799    0.006762    0.269839   -1.028361   -6.155578  -21.442144   -0.619987  -13.562941   -0.035334   -7.654698   -1.112757   -4.656995    1.010921
      6.571      0.000    -25.000    0.000001    1.117687    0.500579    0.001820   -3.071062    0.013953    0.268150   -1.019716   -6.165929  -21.447850   -0.615189  -13.562815   -0.032249   -7.641346   -1.110828   -4.667346    1.009233
      6.571      0.000    -27.000    0.000001    1.126278    0.521120    0.012727   -3.076769    0.030855    0.287624   -1.030278   -6.163442  -21.409812   -0.621888  -13.493586   -0.027507   -7.613127   -1.098251   -4.664860    1.017824
      6.571      0.000    -29.000    0.000001    1.123050    0.512163    0.006310   -3.076262    0.046854    0.279090   -1.026697   -6.169600  -21.389179   -0.619073  -13.526380   -0.032051   -7.581597   -1.088899   -4.671018    1.014596
      6.571      0.000    -31.000    0.000000    1.090505    0.762727    0.546424   -2.061555    0.151264    0.533653   -0.322159   -6.195233  -20.520565   -0.259130  -11.816818    0.706332   -7.362652   -1.023503   -4.696650    0.982051
      6.571      0.000    -33.000    0.000002    1.101769    0.619080    0.258954   -2.582143    0.248016    0.388646   -0.678465   -6.186577  -20.613595   -0.438274  -12.750915    0.320385   -7.176701   -0.953178   -4.687995    0.993314
      6.571      0.000    -35.000    0.000000    1.089934    1.003752    0.974629   -1.334545    0.153842    0.774748    0.162785   -6.194591  -20.025526   -0.016705  -10.367213    1.263360   -7.356399   -1.021505   -4.696008    0.981480
      6.571      0.000    -37.000    0.000002    1.055577    0.399742    0.006334   -2.871390    0.039431    0.174637   -0.833426   -6.222116  -21.397731   -0.508913  -13.774039    0.043683   -7.569853   -1.109850   -4.723534    0.947123
      6.571      0.000    -39.000    0.000000    1.118613    0.693306    0.336738   -2.496777    0.021619    0.460728   -0.636549   -6.185732  -21.110145   -0.422520  -12.411964    0.403520   -7.631969   -1.111404   -4.687149    1.010159
      8.982      0.000     -1.000   -0.000001    0.557246   -0.570526   -0.008603   -1.817150    0.000000   -0.766288    0.238582   -5.607401  -19.213008    0.072419  -16.537157    0.499719   -7.431562   -0.953038   -4.108818    0.448792
      8.982      0.000     -3.000   -0.000001    0.558174   -0.569758   -0.008248   -1.821710    0.000003   -0.765532    0.235093   -5.602550  -19.201918    0.070062  -16.537275    0.498517   -7.431156   -0.951580   -4.103967    0.449720
      8.982      0.000     -5.000    0.000000    0.578482   -0.533421   -0.004812   -1.872523    0.000047   -0.729742    0.187567   -5.598453  -19.233218    0.046429  -16.442149    0.481018   -7.442327   -0.950320   -4.099870    0.470028
      8.982      0.000     -7.000    0.000000    1.075357    0.986086    0.101393   -1.332019    0.000000    0.755451    0.151873   -9.408332  -28.442250   -0.000547  -10.445089    0.442996   -7.658216   -2.093317   -7.909749    0.966903
      8.982      0.000     -9.000    0.000000    1.112150    0.563581   -0.000049   -2.880140   -0.000001    0.329327   -0.905203   -6.527755  -22.267592   -0.542813  -13.195851    0.014835   -7.669642   -1.229145   -5.029172    1.003696
      8.982      0.000    -11.000    0.000000    1.118146    0.522016    0.000184   -3.040850   -0.000002    0.287846   -1.012273   -6.214012  -21.580540   -0.602917  -13.468291   -0.022557   -7.668217   -1.135022   -4.715429    1.009692
      8.982      0.000    -13.000    0.000000    1.122172    0.504912    0.000342   -3.115333   -0.000002    0.270863   -1.061462   -6.080308  -21.288983   -0.632275  -13.585254   -0.041192   -7.667143   -1.094911   -4.581725    1.013717
      8.982      0.000    -15.000    0.000000    1.123334    0.497338    0.000467   -3.141124   -0.000002    0.263576   -1.076980   -6.036125  -21.190888   -0.642927  -13.630418   -0.048080   -7.665813   -1.081656   -4.537542    1.014880
      8.982      0.000    -17.000    0.000000    1.126027    0.502279    0.000552   -3.143661   -0.000003    0.268420   -1.079234   -6.050733  -21.229407   -0.645899  -13.613396   -0.050676   -7.666946   -1.086039   -4.552150    1.017573
      8.982      0.000    -19.000    0.000000    1.123546    0.503415    0.000692   -3.117231   -0.000003    0.270015   -1.058289   -6.097475  -21.330422   -0.635477  -13.588066   -0.044498   -7.666771   -1.100062   -4.598893    1.015092
      8.982      0.000    -21.000    0.000001    1.122645    0.505828    0.000877   -3.100108   -0.000005    0.272638   -1.045112   -6.131717  -21.407964   -0.628933  -13.565885   -0.040836   -7.667749   -1.110336   -4.633135    1.014191
      8.982      0.000    -23.000    0.000001    1.125272    0.511675    0.001115   -3.101156   -0.000007    0.278221   -1.047139   -6.145572  -21.448224   -0.630527  -13.545899   -0.042517   -7.670581   -1.114494   -4.646989    1.016817
      8.982      0.000    -25.000    0.000000    1.126036    0.520830    0.014091   -3.078076    0.008195    0.287331   -1.031760   -6.153501  -21.435411   -0.623013  -13.494701   -0.026075   -7.655691   -1.111132   -4.654918    1.017582
      8.982      0.000    -27.000    0.000001    1.107822    0.484485    0.003053   -3.038729    0.019172    0.253305   -0.989310   -6.174732  -21.437360   -0.597824  -13.596115   -0.019684   -7.628144   -1.109816   -4.676150    0.999367
      8.982      0.000    -29.000    0.000000    1.088357    0.866975    0.738530   -1.731201    0.052673    0.638149   -0.100001   -6.193932  -20.541233   -0.148215  -11.177002    0.957890   -7.558298   -1.092126   -4.695349    0.979903
      8.982      0.000    -31.000    0.000000    1.118523    0.679901    0.317337   -2.535077    0.105155    0.447399   -0.661534   -6.173077  -20.898398   -0.434721  -12.491212    0.377149   -7.465981   -1.049132   -4.674494    1.010069
      8.982      0.000    -33.000    0.000001    1.121356    0.521965    0.028715   -3.032200    0.173355    0.289106   -0.995558   -6.171360  -21.056749   -0.601825  -13.457594   -0.000799   -7.331141   -1.000877   -4.672777    1.012902
      8.982      0.000    -35.000    0.000000    1.093163    0.920645    0.819356   -1.607189    0.101532    0.691248   -0.020848   -6.193204  -20.342347   -0.108846  -10.885338    1.057742   -7.465234   -1.057706   -4.694621    0.984709
      8.982      0.000    -37.000    0.000000    1.060210    0.800065    0.702134   -1.706949    0.043152    0.574442   -0.060752   -6.216549  -20.601139   -0.123213  -11.401227    0.942413   -7.565261   -1.105575   -4.717966    0.951756
      8.982      0.000    -39.000    0.000000    1.079980    0.973043    0.949497   -1.348064    0.016761    0.745147    0.161605   -6.200210  -20.384680   -0.016035  -10.488742    1.241733   -7.624552   -1.119148   -4.701627    0.971526
     11.910      0.000     -1.000   -0.000001    0.557238   -0.570488   -0.008610   -1.817036    0.000000   -0.766251    0.238641   -5.607589  -19.213350    0.072464  -16.536930    0.499750   -7.431540   -0.953094   -4.109006    0.448784
     11.910      0.000     -3.000   -0.000001    0.557809   -0.570364   -0.008311   -1.820751    0.000003   -0.766128    0.235945   -5.602709  -19.201286    0.070476  -16.538741    0.498851   -7.430858   -0.951628   -4.104126    0.449355
     11.910      0.000     -5.000   -0.000001    0.572677   -0.544381   -0.005717   -1.859031    0.000034   -0.740537    0.200707   -5.597498  -19.220276    0.052812  -16.472255    0.485775   -7.439370   -0.950044   -4.098915    0.464223