
          ---- Reactive Surface Areas (m^2/ kg H2O) vs. grid blocks at specified times ----

 
VARIABLES =X,       Y,      Z,     Sl,      A_fmr,     A_Factor,  quartz     ,k-feldspar ,smectite-ca,muscovite  ,siderite-2 ,albite~low ,kaolinite  ,dolomite-2 ,chlorite   ,dawsonite  ,oligoclase ,illite     ,hematite   ,ankerite-2 ,magnesite  ,chalcedony ,
ZONE T= "0.499669E+02 yr"  F=POINT
      0.500      0.000     -1.000 0.43436E+00 0.10000E+01 0.38329E-02  0.1117E-01  0.5054E-03  0.4567E+00  0.4503E-02  0.1491E+00  0.1189E-04  0.1182E-04  0.1258E-04  0.1301E-04  0.1135E-04  0.1195E-04  0.1229E-04  0.1936E-04  0.1338E-04  0.1299E-04  0.1197E-04
      0.500      0.000     -3.000 0.44045E+00 0.10000E+01 0.38330E-02  0.1118E-01  0.5055E-03  0.4567E+00  0.4503E-02  0.1491E+00  0.1189E-04  0.1182E-04  0.1258E-04  0.1301E-04  0.1135E-04  0.1195E-04  0.1229E-04  0.1937E-04  0.1338E-04  0.1299E-04  0.1197E-04
      0.500      0.000     -5.000 0.39357E+00 0.10000E+01 0.38300E-02  0.1117E-01  0.5051E-03  0.4563E+00  0.4499E-02  0.1490E+00  0.1188E-04  0.1181E-04  0.1257E-04  0.1300E-04  0.1134E-04  0.1194E-04  0.1228E-04  0.1935E-04  0.1337E-04  0.1298E-04  0.1196E-04
      0.500      0.000     -7.000 0.98214E-01 0.10000E+01 0.34095E-02  0.1043E-01  0.4717E-03  0.4262E+00  0.4202E-02  0.1391E+00  0.1110E-04  0.1103E-04  0.1174E-04  0.1215E-04  0.1059E-04  0.1115E-04  0.1147E-04  0.1808E-04  0.1249E-04  0.1212E-04  0.1117E-04
      0.500      0.000     -9.000 0.00000E+00 0.10000E+01 0.00000E+00  0.1041E-01  0.4707E-03  0.4253E+00  0.4194E-02  0.1389E+00  0.1108E-04  0.1101E-04  0.1172E-04  0.1212E-04  0.1057E-04  0.1113E-04  0.1145E-04  0.1804E-04  0.1246E-04  0.1210E-04  0.1115E-04
      0.500      0.000    -11.000 0.00000E+00 0.10000E+01 0.00000E+00  0.1038E-01  0.4696E-03  0.4243E+00  0.4183E-02  0.1385E+00  0.1105E-04  0.1098E-04  0.1169E-04  0.1209E-04  0.1055E-04  0.1110E-04  0.1142E-04  0.1800E-04  0.1243E-04  0.1207E-04  0.1112E-04
      0.500      0.000    -13.000 0.00000E+00 0.10000E+01 0.00000E+00  0.1036E-01  0.4687E-03  0.4235E+00  0.4176E-02  0.1383E+00  0.1103E-04  0.1096E-04  0.1167E-04  0.1207E-04  0.1053E-04  0.1108E-04  0.1140E-04  0.1796E-04  0.1241E-04  0.1205E-04  0.1110E-04
      0.500      0.000    -15.000 0.00000E+00 0.10000E+01 0.00000E+00  0.1034E-01  0.4679E-03  0.4228E+00  0.4168E-02  0.1380E+00  0.1101E-04  0.1094E-04  0.1165E-04  0.1205E-04  0.1051E-04  0.1106E-04  0.1138E-04  0.1793E-04  0.1239E-04  0.1202E-04  0.1108E-04
      0.500      0.000    -17.000 0.00000E+00 0.10000E+01 0.00000E+00  0.1036E-01  0.4684E-03  0.4232E+00  0.4173E-02  0.1382E+00  0.1102E-04  0.1095E-04  0.1166E-04  0.1206E-04  0.1052E-04  0.1108E-04  0.1140E-04  0.1795E-04  0.1240E-04  0.1204E-04  0.1110E-04
      0.500      0.000    -19.000 0.00000E+00 0.10000E+01 0.00000E+00  0.1037E-01  0.4690E-03  0.4238E+00  0.4178E-02  0.1384E+00  0.1104E-04  0.1097E-04  0.1168E-04  0.1208E-04  0.1053E-04  0.1109E-04  0.1141E-04  0.1797E-04  0.1242E-04  0.1205E-04  0.1111E-04
      0.500      0.000    -21.000 0.00000E+00 0.10000E+01 0.00000E+00  0.1038E-01  0.4695E-03  0.4242E+00  0.4183E-02  0.1385E+00  0.1105E-04  0.1098E-04  0.1169E-04  0.1209E-04  0.1055E-04  0.1110E-04  0.1142E-04  0.1799E-04  0.1243E-04  0.1207E-04  0.1112E-04
      0.500      0.000    -23.000 0.00000E+00 0.10000E+01 0.00000E+00  0.1039E-01  0.4701E-03  0.4248E+00  0.4188E-02  0.1387E+00  0.1106E-04  0.1099E-04  0.1170E-04  0.1210E-04  0.1056E-04  0.1112E-04  0.1144E-04  0.1802E-04  0.1244E-04  0.1208E-04  0.1114E-04
      0.500      0.000    -25.000 0.00000E+00 0.10000E+01 0.00000E+00  0.1043E-01  0.4719E-03  0.4264E+00  0.4204E-02  0.1392E+00  0.1110E-04  0.1103E-04  0.1175E-04  0.1215E-04  0.1060E-04  0.1116E-04  0.1148E-04  0.1808E-04  0.1249E-04  0.1213E-04  0.1118E-04
      0.500      0.000    -27.000 0.00000E+00 0.10000E+01 0.00000E+00  0.1040E-01  0.4705E-03  0.4251E+00  0.4191E-02  0.1388E+00  0.1107E-04  0.1100E-04  0.1171E-04  0.1211E-04  0.1057E-04  0.1113E-04  0.1145E-04  0.1803E-04  0.1245E-04  0.1209E-04  0.1114E-04
      0.500      0.000    -29.000 0.00000E+00 0.10000E+01 0.00000E+00  0.1041E-01  0.4708E-03  0.4254E+00  0.4194E-02  0.1389E+00  0.1108E-04  0.1101E-04  0.1172E-04  0.1212E-04  0.1057E-04  0.1113E-04  0.1145E-04  0.1804E-04  0.1246E-04  0.1210E-04  0.1115E-04
      0.500      0.000    -31.000 0.00000E+00 0.10000E+01 0.00000E+00  0.1048E-01  0.4739E-03  0.4282E+00  0.4222E-02  0.1398E+00  0.1115E-04  0.1108E-04  0.1180E-04  0.1220E-04  0.1064E-04  0.1121E-04  0.1153E-04  0.1816E-04  0.1255E-04  0.1218E-04  0.1123E-04
      0.500      0.000    -33.000 0.00000E+00 0.10000E+01 0.00000E+00  0.1062E-01  0.4801E-03  0.4338E+00  0.4277E-02  0.1416E+00  0.1130E-04  0.1123E-04  0.1195E-04  0.1236E-04  0.1078E-04  0.1135E-04  0.1168E-04  0.1840E-04  0.1271E-04  0.1234E-04  0.1137E-04
      0.500      0.000    -35.000 0.00000E+00 0.10000E+01 0.00000E+00  0.1050E-01  0.4750E-03  0.4291E+00  0.4231E-02  0.1401E+00  0.1118E-04  0.1111E-04  0.1182E-04  0.1223E-04  0.1067E-04  0.1123E-04  0.1155E-04  0.1820E-04  0.1257E-04  0.1221E-04  0.1125E-04
      0.500      0.000    -37.000 0.00000E+00 0.10000E+01 0.00000E+00  0.1040E-01  0.4705E-03  0.4251E+00  0.4191E-02  0.1388E+00  0.1107E-04  0.1100E-04  0.1171E-04  0.1211E-04  0.1057E-04  0.1112E-04  0.1144E-04  0.1803E-04  0.1245E-04  0.1209E-04  0.1114E-04
      0.500      0.000    -39.000 0.00000E+00 0.10000E+01 0.00000E+00  0.1048E-01  0.4738E-03  0.4281E+00  0.4221E-02  0.1398E+00  0.1115E-04  0.1108E-04  0.1179E-04  0.1220E-04  0.1064E-04  0.1120E-04  0.1153E-04  0.1816E-04  0.1254E-04  0.1217E-04  0.1122E-04
      1.607      0.000     -1.000 0.43437E+00 0.10000E+01 0.38329E-02  0.1117E-01  0.5054E-03  0.4567E+00  0.4503E-02  0.1491E+00  0.1189E-04  0.1182E-04  0.1258E-04  0.1301E-04  0.1135E-04  0.1195E-04  0.1229E-04  0.1936E-04  0.1338E-04  0.1299E-04  0.1197E-04
      1.607      0.000     -3.000 0.44053E+00 0.10000E+01 0.38330E-02  0.1118E-01  0.5055E-03  0.4567E+00  0.4503E-02  0.1491E+00  0.1189E-04  0.1182E-04  0.1258E-04  0.1301E-04  0.1135E-04  0.1195E-04  0.1229E-04  0.1937E-04  0.1338E-04  0.1299E-04  0.1197E-04
      1.607      0.000     -5.000 0.39405E+00 0.10000E+01 0.38301E-02  0.1117E-01  0.5051E-03  0.4563E+00  0.4499E-02  0.1490E+00  0.1188E-04  0.1181E-04  0.1257E-04  0.1300E-04  0.1134E-04  0.1194E-04  0.1228E-04  0.1935E-04  0.1337E-04  0.1298E-04  0.1196E-04
      1.607      0.000     -7.000 0.99856E-01 0.10000E+01 0.34183E-02  0.1043E-01  0.4717E-03  0.4262E+00  0.4202E-02  0.1392E+00  0.1110E-04  0.1103E-04  0.1174E-04  0.1215E-04  0.1060E-04  0.1115E-04  0.1148E-04  0.1808E-04  0.1249E-04  0.1212E-04  0.1117E-04
      1.607      0.000     -9.000 0.00000E+00 0.10000E+01 0.00000E+00  0.1040E-01  0.4706E-03  0.4252E+00  0.4192E-02  0.1388E+00  0.1107E-04  0.1101E-04  0.1172E-04  0.1212E-04  0.1057E-04  0.1113E-04  0.1145E-04  0.1803E-04  0.1246E-04  0.1209E-04  0.1115E-04
      1.607      0.000    -11.000 0.00000E+00 0.10000E+01 0.00000E+00  0.1038E-01  0.4697E-03  0.4244E+00  0.4184E-02  0.1386E+00  0.1105E-04  0.1098E-04  0.1169E-04  0.1209E-04  0.1055E-04  0.1111E-04  0.1143E-04  0.1800E-04  0.1243E-04  0.1207E-04  0.1113E-04
      1.607      0.000    -13.000 0.00000E+00 0.10000E+01 0.00000E+00  0.1036E-01  0.4688E-03  0.4235E+00  0.4176E-02  0.1383E+00  0.1103E-04  0.1096E-04  0.1167E-04  0.1207E-04  0.1053E-04  0.1109E-04  0.1140E-04  0.1796E-04  0.1241E-04  0.1205E-04  0.1110E-04
      1.607      0.000    -15.000 0.00000E+00 0.10000E+01 0.00000E+00  0.1034E-01  0.4679E-03  0.4227E+00  0.4168E-02  0.1380E+00  0.1101E-04  0.1094E-04  0.1165E-04  0.1205E-04  0.1051E-04  0.1106E-04  0.1138E-04  0.1793E-04  0.1239E-04  0.1202E-04  0.1108E-04
      1.607      0.000    -17.000 0.00000E+00 0.10000E+01 0.00000E+00  0.1035E-01  0.4680E-03  0.4229E+00  0.4169E-02  0.1381E+00  0.1101E-04  0.1095E-04  0.1165E-04  0.1205E-04  0.1051E-04  0.1107E-04  0.1139E-04  0.1794E-04  0.1239E-04  0.1203E-04  0.1109E-04
      1.607      0.000    -19.000 0.00000E+00 0.10000E+01 0.00000E+00  0.1037E-01  0.4692E-03  0.4240E+00  0.4180E-02  0.1384E+00  0.1104E-04  0.1097E-04  0.1168E-04  0.1208E-04  0.1054E-04  0.1110E-04  0.1142E-04  0.1798E-04  0.1242E-04  0.1206E-04  0.1112E-04
      1.607      0.000    -21.000 0.00000E+00 0.10000E+01 0.00000E+00  0.1039E-01  0.4699E-03  0.4246E+00  0.4186E-02  0.1386E+00  0.1106E-04  0.1099E-04  0.1170E-04  0.1210E-04  0.1055E-04  0.1111E-04  0.1143E-04  0.1801E-04  0.1244E-04  0.1208E-04  0.1113E-04
      1.607      0.000    -23.000 0.00000E+00 0.10000E+01 0.00000E+00  0.1043E-01  0.4715E-03  0.4261E+00  0.4201E-02  0.1391E+00  0.1110E-04  0.1103E-04  0.1174E-04  0.1214E-04  0.1059E-04  0.1115E-04  0.1147E-04  0.1807E-04  0.1248E-04  0.1212E-04  0.1117E-04
      1.607      0.000    -25.000 0.00000E+00 0.10000E+01 0.00000E+00  0.1039E-01  0.4701E-03  0.4247E+00  0.4188E-02  0.1387E+00  0.1106E-04  0.1099E-04  0.1170E-04  0.1210E-04  0.1056E-04  0.1112E-04  0.1144E-04  0.1801E-04  0.1244E-04  0.1208E-04  0.1113E-04
      1.607      0.000    -27.000 0.00000E+00 0.10000E+01 0.00000E+00  0.1041E-01  0.4707E-03  0.4253E+00  0.4194E-02  0.1389E+00  0.1108E-04  0.1101E-04  0.1172E-04  0.1212E-04  0.1057E-04  0.1113E-04  0.1145E-04  0.1804E-04  0.1246E-04  0.1210E-04  0.1115E-04
      1.607      0.000    -29.000 0.00000E+00 0.10000E+01 0.00000E+00  0.1040E-01  0.4704E-03  0.4250E+00  0.4190E-02  0.1387E+00  0.1107E-04  0.1100E-04  0.1171E-04  0.1211E-04  0.1056E-04  0.1112E-04  0.1144E-04  0.1802E-04  0.1245E-04  0.1209E-04  0.1114E-04
      1.607      0.000    -31.000 0.00000E+00 0.10000E+01 0.00000E+00  0.1040E-01  0.4703E-03  0.4249E+00  0.4189E-02  0.1387E+00  0.1107E-04  0.1100E-04  0.1171E-04  0.1211E-04  0.1056E-04  0.1112E-04  0.1144E-04  0.1802E-04  0.1245E-04  0.1209E-04  0.1114E-04
      1.607      0.000    -33.000 0.00000E+00 0.10000E+01 0.00000E+00  0.1066E-01  0.4823E-03  0.4357E+00  0.4296E-02  0.1422E+00  0.1135E-04  0.1128E-04  0.1200E-04  0.1242E-04  0.1083E-04  0.1140E-04  0.1173E-04  0.1848E-04  0.1277E-04  0.1239E-04  0.1142E-04
      1.607      0.000    -35.000 0.00000E+00 0.10000E+01 0.00000E+00  0.1044E-01  0.4723E-03  0.4267E+00  0.4207E-02  0.1393E+00  0.1111E-04  0.1104E-04  0.1176E-04  0.1216E-04  0.1061E-04  0.1117E-04  0.1149E-04  0.1810E-04  0.1250E-04  0.1213E-04  0.1119E-04
      1.607      0.000    -37.000 0.00000E+00 0.10000E+01 0.00000E+00  0.1040E-01  0.4705E-03  0.4251E+00  0.4192E-02  0.1388E+00  0.1107E-04  0.1100E-04  0.1171E-04  0.1212E-04  0.1057E-04  0.1113E-04  0.1145E-04  0.1803E-04  0.1246E-04  0.1209E-04  0.1115E-04
      1.607      0.000    -39.000 0.00000E+00 0.10000E+01 0.00000E+00  0.1048E-01  0.4740E-03  0.4282E+00  0.4222E-02  0.1398E+00  0.1115E-04  0.1108E-04  0.1180E-04  0.1220E-04  0.1064E-04  0.1121E-04  0.1153E-04  0.1816E-04  0.1255E-04  0.1218E-04  0.1123E-04
      2.953      0.000     -1.000 0.43440E+00 0.10000E+01 0.38329E-02  0.1117E-01  0.5054E-03  0.4567E+00  0.4503E-02  0.1491E+00  0.1189E-04  0.1182E-04  0.1258E-04  0.1301E-04  0.1135E-04  0.1195E-04  0.1229E-04  0.1936E-04  0.1338E-04  0.1299E-04  0.1197E-04
      2.953      0.000     -3.000 0.44073E+00 0.10000E+01 0.38330E-02  0.1118E-01  0.5055E-03  0.4567E+00  0.4503E-02  0.1491E+00  0.1189E-04  0.1182E-04  0.1258E-04  0.1301E-04  0.1135E-04  0.1195E-04  0.1229E-04  0.1937E-04  0.1338E-04  0.1299E-04  0.1197E-04
      2.953      0.000     -5.000 0.39525E+00 0.10000E+01 0.38303E-02  0.1117E-01  0.5051E-03  0.4564E+00  0.4500E-02  0.1490E+00  0.1188E-04  0.1181E-04  0.1257E-04  0.1300E-04  0.1134E-04  0.1194E-04  0.1229E-04  0.1935E-04  0.1337E-04  0.1298E-04  0.1196E-04
      2.953      0.000     -7.000 0.10401E+00 0.10000E+01 0.34389E-02  0.1043E-01  0.4718E-03  0.4263E+00  0.4203E-02  0.1392E+00  0.1110E-04  0.1103E-04  0.1175E-04  0.1215E-04  0.1060E-04  0.1116E-04  0.1148E-04  0.1808E-04  0.1249E-04  0.1212E-04  0.1118E-04
      2.953      0.000     -9.000 0.00000E+00 0.10000E+01 0.00000E+00  0.1041E-01  0.4706E-03  0.4252E+00  0.4193E-02  0.1388E+00  0.1107E-04  0.1101E-04  0.1172E-04  0.1212E-04  0.1057E-04  0.1113E-04  0.1145E-04  0.1804E-04  0.1246E-04  0.1209E-04  0.1115E-04
      2.953      0.000    -11.000 0.00000E+00 0.10000E+01 0.00000E+00  0.1038E-01  0.4696E-03  0.4243E+00  0.4184E-02  0.1385E+00  0.1105E-04  0.1098E-04  0.1169E-04  0.1209E-04  0.1055E-04  0.1111E-04  0.1143E-04  0.1800E-04  0.1243E-04  0.1207E-04  0.1112E-04
      2.953      0.000    -13.000 0.00000E+00 0.10000E+01 0.00000E+00  0.1036E-01  0.4686E-03  0.4234E+00  0.4174E-02  0.1382E+00  0.1103E-04  0.1096E-04  0.1167E-04  0.1207E-04  0.1053E-04  0.1108E-04  0.1140E-04  0.1796E-04  0.1240E-04  0.1204E-04  0.1110E-04
      2.953      0.000    -15.000 0.00000E+00 0.10000E+01 0.00000E+00  0.1035E-01  0.4682E-03  0.4230E+00  0.4171E-02  0.1381E+00  0.1102E-04  0.1095E-04  0.1165E-04  0.1206E-04  0.1052E-04  0.1107E-04  0.1139E-04  0.1794E-04  0.1239E-04  0.1203E-04  0.1109E-04
      2.953      0.000    -17.000 0.00000E+00 0.10000E+01 0.00000E+00  0.1036E-01  0.4685E-03  0.4233E+00  0.4173E-02  0.1382E+00  0.1102E-04  0.1096E-04  0.1166E-04  0.1206E-04  0.1052E-04  0.1108E-04  0.1140E-04  0.1795E-04  0.1240E-04  0.1204E-04  0.1110E-04
      2.953      0.000    -19.000 0.00000E+00 0.10000E+01 0.00000E+00  0.1037E-01  0.4693E-03  0.4240E+00  0.4180E-02  0.1384E+00  0.1104E-04  0.1097E-04  0.1168E-04  0.1208E-04  0.1054E-04  0.1110E-04  0.1142E-04  0.1798E-04  0.1242E-04  0.1206E-04  0.1112E-04
      2.953      0.000    -21.000 0.00000E+00 0.10000E+01 0.00000E+00  0.1039E-01  0.4699E-03  0.4246E+00  0.4186E-02  0.1386E+00  0.1106E-04  0.1099E-04  0.1170E-04  0.1210E-04  0.1056E-04  0.1111E-04  0.1143E-04  0.1801E-04  0.1244E-04  0.1208E-04  0.1113E-04
      2.953      0.000    -23.000 0.00000E+00 0.10000E+01 0.00000E+00  0.1042E-01  0.4713E-03  0.4258E+00  0.4198E-02  0.1390E+00  0.1109E-04  0.1102E-04  0.1173E-04  0.1213E-04  0.1058E-04  0.1114E-04  0.1146E-04  0.1806E-04  0.1247E-04  0.1211E-04  0.1116E-04
      2.953      0.000    -25.000 0.00000E+00 0.10000E+01 0.00000E+00  0.1043E-01  0.4717E-03  0.4262E+00  0.4202E-02  0.1391E+00  0.1110E-04  0.1103E-04  0.1174E-04  0.1214E-04  0.1059E-04  0.1115E-04  0.1147E-04  0.1808E-04  0.1249E-04  0.1212E-04  0.1117E-04
      2.953      0.000    -27.000 0.00000E+00 0.10000E+01 0.00000E+00  0.1041E-01  0.4709E-03  0.4255E+00  0.4195E-02  0.1389E+00  0.1108E-04  0.1101E-04  0.1172E-04  0.1212E-04  0.1058E-04  0.1113E-04  0.1146E-04  0.1804E-04  0.1246E-04  0.1210E-04  0.1115E-04
      2.953      0.000    -29.000 0.00000E+00 0.10000E+01 0.00000E+00  0.1040E-01  0.4703E-03  0.4250E+00  0.4190E-02  0.1387E+00  0.1107E-04  0.1100E-04  0.1171E-04  0.1211E-04  0.1056E-04  0.1112E-04  0.1144E-04  0.1802E-04  0.1245E-04  0.1209E-04  0.1114E-04
      2.953      0.000    -31.000 0.00000E+00 0.10000E+01 0.00000E+00  0.1041E-01  0.4706E-03  0.4252E+00  0.4193E-02  0.1388E+00  0.1107E-04  0.1101E-04  0.1172E-04  0.1212E-04  0.1057E-04  0.1113E-04  0.1145E-04  0.1804E-04  0.1246E-04  0.1209E-04  0.1115E-04
      2.953      0.000    -33.000 0.00000E+00 0.10000E+01 0.00000E+00  0.1073E-01  0.4853E-03  0.4385E+00  0.4323E-02  0.1431E+00  0.1142E-04  0.1135E-04  0.1208E-04  0.1249E-04  0.1090E-04  0.1147E-04  0.1180E-04  0.1859E-04  0.1284E-04  0.1247E-04  0.1149E-04
      2.953      0.000    -35.000 0.00000E+00 0.10000E+01 0.00000E+00  0.1049E-01  0.4744E-03  0.4286E+00  0.4226E-02  0.1399E+00  0.1116E-04  0.1109E-04  0.1181E-04  0.1221E-04  0.1065E-04  0.1122E-04  0.1154E-04  0.1818E-04  0.1256E-04  0.1219E-04  0.1124E-04
      2.953      0.000    -37.000 0.00000E+00 0.10000E+01 0.00000E+00  0.1040E-01  0.4704E-03  0.4250E+00  0.4191E-02  0.1388E+00  0.1107E-04  0.1100E-04  0.1171E-04  0.1211E-04  0.1056E-04  0.1112E-04  0.1144E-04  0.1803E-04  0.1245E-04  0.1209E-04  0.1114E-04
      2.953      0.000    -39.000 0.00000E+00 0.10000E+01 0.00000E+00  0.1043E-01  0.4716E-03  0.4261E+00  0.4201E-02  0.1391E+00  0.1110E-04  0.1103E-04  0.1174E-04  0.1214E-04  0.1059E-04  0.1115E-04  0.1147E-04  0.1807E-04  0.1248E-04  0.1212E-04  0.1117E-04
      4.586      0.000     -1.000 0.43446E+00 0.10000E+01 0.38329E-02  0.1117E-01  0.5054E-03  0.4567E+00  0.4503E-02  0.1491E+00  0.1189E-04  0.1182E-04  0.1258E-04  0.1301E-04  0.1135E-04  0.1195E-04  0.1229E-04  0.1936E-04  0.1338E-04  0.1299E-04  0.1197E-04
      4.586      0.000     -3.000 0.44112E+00 0.10000E+01 0.38330E-02  0.1118E-01  0.5055E-03  0.4567E+00  0.4503E-02  0.1491E+00  0.1189E-04  0.1182E-04  0.1258E-04  0.1301E-04  0.1135E-04  0.1195E-04  0.1229E-04  0.1937E-04  0.1338E-04  0.1299E-04  0.1197E-04
      4.586      0.000     -5.000 0.39753E+00 0.10000E+01 0.38306E-02  0.1117E-01  0.5051E-03  0.4564E+00  0.4500E-02  0.1490E+00  0.1188E-04  0.1181E-04  0.1257E-04  0.1300E-04  0.1134E-04  0.1194E-04  0.1229E-04  0.1935E-04  0.1337E-04  0.1298E-04  0.1196E-04
      4.586      0.000     -7.000 0.11205E+00 0.10000E+01 0.34748E-02  0.1043E-01  0.4717E-03  0.4262E+00  0.4202E-02  0.1392E+00  0.1110E-04  0.1103E-04  0.1174E-04  0.1215E-04  0.1060E-04  0.1115E-04  0.1148E-04  0.1808E-04  0.1249E-04  0.1212E-04  0.1117E-04
      4.586      0.000     -9.000 0.00000E+00 0.10000E+01 0.00000E+00  0.1041E-01  0.4707E-03  0.4253E+00  0.4193E-02  0.1388E+00  0.1108E-04  0.1101E-04  0.1172E-04  0.1212E-04  0.1057E-04  0.1113E-04  0.1145E-04  0.1804E-04  0.1246E-04  0.1210E-04  0.1115E-04
      4.586      0.000    -11.000 0.00000E+00 0.10000E+01 0.00000E+00  0.1038E-01  0.4697E-03  0.4244E+00  0.4184E-02  0.1386E+00  0.1105E-04  0.1098E-04  0.1169E-04  0.1209E-04  0.1055E-04  0.1111E-04  0.1143E-04  0.1800E-04  0.1243E-04  0.1207E-04  0.1113E-04
      4.586      0.000    -13.000 0.00000E+00 0.10000E+01 0.00000E+00  0.1036E-01  0.4686E-03  0.4234E+00  0.4174E-02  0.1382E+00  0.1103E-04  0.1096E-04  0.1167E-04  0.1207E-04  0.1052E-04  0.1108E-04  0.1140E-04  0.1796E-04  0.1240E-04  0.1204E-04  0.1110E-04
      4.586      0.000    -15.000 0.00000E+00 0.10000E+01 0.00000E+00  0.1035E-01  0.4680E-03  0.4228E+00  0.4169E-02  0.1380E+00  0.1101E-04  0.1094E-04  0.1165E-04  0.1205E-04  0.1051E-04  0.1107E-04  0.1138E-04  0.1793E-04  0.1239E-04  0.1203E-04  0.1109E-04
      4.586      0.000    -17.000 0.00000E+00 0.10000E+01 0.00000E+00  0.1036E-01  0.4684E-03  0.4232E+00  0.4173E-02  0.1382E+00  0.1102E-04  0.1095E-04  0.1166E-04  0.1206E-04  0.1052E-04  0.1108E-04  0.1140E-04  0.1795E-04  0.1240E-04  0.1204E-04  0.1110E-04
      4.586      0.000    -19.000 0.00000E+00 0.10000E+01 0.00000E+00  0.1037E-01  0.4691E-03  0.4238E+00  0.4179E-02  0.1384E+00  0.1104E-04  0.1097E-04  0.1168E-04  0.1208E-04  0.1054E-04  0.1109E-04  0.1141E-04  0.1798E-04  0.1242E-04  0.1205E-04  0.1111E-04
      4.586      0.000    -21.000 0.00000E+00 0.10000E+01 0.00000E+00  0.1040E-01  0.4702E-03  0.4249E+00  0.4189E-02  0.1387E+00  0.1106E-04  0.1100E-04  0.1171E-04  0.1211E-04  0.1056E-04  0.1112E-04  0.1144E-04  0.1802E-04  0.1245E-04  0.1208E-04  0.1114E-04
      4.586      0.000    -23.000 0.00000E+00 0.10000E+01 0.00000E+00  0.1040E-01  0.4703E-03  0.4250E+00  0.4190E-02  0.1387E+00  0.1107E-04  0.1100E-04  0.1171E-04  0.1211E-04  0.1056E-04  0.1112E-04  0.1144E-04  0.1802E-04  0.1245E-04  0.1209E-04  0.1114E-04
      4.586      0.000    -25.000 0.00000E+00 0.10000E+01 0.00000E+00  0.1044E-01  0.4722E-03  0.4267E+00  0.4207E-02  0.1393E+00  0.1111E-04  0.1104E-04  0.1176E-04  0.1216E-04  0.1061E-04  0.1117E-04  0.1149E-04  0.1810E-04  0.1250E-04  0.1214E-04  0.1119E-04
      4.586      0.000    -27.000 0.00000E+00 0.10000E+01 0.00000E+00  0.1043E-01  0.4720E-03  0.4264E+00  0.4204E-02  0.1392E+00  0.1111E-04  0.1104E-04  0.1175E-04  0.1215E-04  0.1060E-04  0.1116E-04  0.1148E-04  0.1809E-04  0.1249E-04  0.1213E-04  0.1118E-04
      4.586      0.000    -29.000 0.00000E+00 0.10000E+01 0.00000E+00  0.1041E-01  0.4710E-03  0.4256E+00  0.4196E-02  0.1389E+00  0.1108E-04  0.1101E-04  0.1173E-04  0.1213E-04  0.1058E-04  0.1114E-04  0.1146E-04  0.1805E-04  0.1247E-04  0.1210E-04  0.1116E-04
      4.586      0.000    -31.000 0.00000E+00 0.10000E+01 0.00000E+00  0.1040E-01  0.4705E-03  0.4251E+00  0.4192E-02  0.1388E+00  0.1107E-04  0.1100E-04  0.1171E-04  0.1212E-04  0.1057E-04  0.1113E-04  0.1145E-04  0.1803E-04  0.1246E-04  0.1209E-04  0.1115E-04
      4.586      0.000    -33.000 0.00000E+00 0.10000E+01 0.00000E+00  0.1050E-01  0.4750E-03  0.4292E+00  0.4231E-02  0.1401E+00  0.1118E-04  0.1111E-04  0.1182E-04  0.1223E-04  0.1067E-04  0.1123E-04  0.1155E-04  0.1820E-04  0.1257E-04  0.1221E-04  0.1125E-04
      4.586      0.000    -35.000 0.00000E+00 0.10000E+01 0.00000E+00  0.1048E-01  0.4741E-03  0.4284E+00  0.4224E-02  0.1399E+00  0.1116E-04  0.1109E-04  0.1180E-04  0.1221E-04  0.1065E-04  0.1121E-04  0.1153E-04  0.1817E-04  0.1255E-04  0.1218E-04  0.1123E-04
      4.586      0.000    -37.000 0.00000E+00 0.10000E+01 0.00000E+00  0.1038E-01  0.4697E-03  0.4244E+00  0.4184E-02  0.1385E+00  0.1105E-04  0.1098E-04  0.1169E-04  0.1209E-04  0.1055E-04  0.1111E-04  0.1143E-04  0.1800E-04  0.1243E-04  0.1207E-04  0.1113E-04
      4.586      0.000    -39.000 0.00000E+00 0.10000E+01 0.00000E+00  0.1047E-01  0.4736E-03  0.4279E+00  0.4219E-02  0.1397E+00  0.1114E-04  0.1107E-04  0.1179E-04  0.1219E-04  0.1064E-04  0.1120E-04  0.1152E-04  0.1815E-04  0.1254E-04  0.1217E-04  0.1122E-04
      6.571      0.000     -1.000 0.43457E+00 0.10000E+01 0.38330E-02  0.1118E-01  0.5055E-03  0.4567E+00  0.4503E-02  0.1491E+00  0.1189E-04  0.1182E-04  0.1258E-04  0.1301E-04  0.1135E-04  0.1195E-04  0.1229E-04  0.1937E-04  0.1338E-04  0.1299E-04  0.1197E-04
      6.571      0.000     -3.000 0.44180E+00 0.10000E+01 0.38330E-02  0.1118E-01  0.5054E-03  0.4567E+00  0.4503E-02  0.1491E+00  0.1189E-04  0.1182E-04  0.1258E-04  0.1301E-04  0.1135E-04  0.1195E-04  0.1229E-04  0.1937E-04  0.1338E-04  0.1299E-04  0.1197E-04
      6.571      0.000     -5.000 0.40134E+00 0.10000E+01 0.38311E-02  0.1117E-01  0.5052E-03  0.4565E+00  0.4501E-02  0.1490E+00  0.1189E-04  0.1181E-04  0.1257E-04  0.1301E-04  0.1134E-04  0.1194E-04  0.1229E-04  0.1936E-04  0.1337E-04  0.1298E-04  0.1196E-04
      6.571      0.000     -7.000 0.12629E+00 0.10000E+01 0.35290E-02  0.1043E-01  0.4718E-03  0.4263E+00  0.4203E-02  0.1392E+00  0.1110E-04  0.1103E-04  0.1174E-04  0.1215E-04  0.1060E-04  0.1116E-04  0.1148E-04  0.1808E-04  0.1249E-04  0.1212E-04  0.1118E-04
      6.571      0.000     -9.000 0.00000E+00 0.10000E+01 0.00000E+00  0.1041E-01  0.4707E-03  0.4253E+00  0.4193E-02  0.1389E+00  0.1108E-04  0.1101E-04  0.1172E-04  0.1212E-04  0.1057E-04  0.1113E-04  0.1145E-04  0.1804E-04  0.1246E-04  0.1210E-04  0.1115E-04
      6.571      0.000    -11.000 0.00000E+00 0.10000E+01 0.00000E+00  0.1039E-01  0.4697E-03  0.4244E+00  0.4185E-02  0.1386E+00  0.1105E-04  0.1099E-04  0.1169E-04  0.1210E-04  0.1055E-04  0.1111E-04  0.1143E-04  0.1800E-04  0.1244E-04  0.1207E-04  0.1113E-04
      6.571      0.000    -13.000 0.00000E+00 0.10000E+01 0.00000E+00  0.1037E-01  0.4689E-03  0.4237E+00  0.4177E-02  0.1383E+00  0.1103E-04  0.1097E-04  0.1167E-04  0.1207E-04  0.1053E-04  0.1109E-04  0.1141E-04  0.1797E-04  0.1241E-04  0.1205E-04  0.1111E-04
      6.571      0.000    -15.000 0.00000E+00 0.10000E+01 0.00000E+00  0.1035E-01  0.4681E-03  0.4229E+00  0.4170E-02  0.1381E+00  0.1101E-04  0.1095E-04  0.1165E-04  0.1205E-04  0.1051E-04  0.1107E-04  0.1139E-04  0.1794E-04  0.1239E-04  0.1203E-04  0.1109E-04
      6.571      0.000    -17.000 0.00000E+00 0.10000E+01 0.00000E+00  0.1035E-01  0.4681E-03  0.4229E+00  0.4170E-02  0.1381E+00  0.1101E-04  0.1095E-04  0.1165E-04  0.1205E-04  0.1051E-04  0.1107E-04  0.1139E-04  0.1794E-04  0.1239E-04  0.1203E-04  0.1109E-04
      6.571      0.000    -19.000 0.00000E+00 0.10000E+01 0.00000E+00  0.1037E-01  0.4689E-03  0.4236E+00  0.4177E-02  0.1383E+00  0.1103E-04  0.1096E-04  0.1167E-04  0.1207E-04  0.1053E-04  0.1109E-04  0.1141E-04  0.1797E-04  0.1241E-04  0.1205E-04  0.1111E-04
      6.571      0.000    -21.000 0.00000E+00 0.10000E+01 0.00000E+00  0.1040E-01  0.4702E-03  0.4249E+00  0.4189E-02  0.1387E+00  0.1107E-04  0.1100E-04  0.1171E-04  0.1211E-04  0.1056E-04  0.1112E-04  0.1144E-04  0.1802E-04  0.1245E-04  0.1208E-04  0.1114E-04
      6.571      0.000    -23.000 0.00000E+00 0.10000E+01 0.00000E+00  0.1041E-01  0.4708E-03  0.4254E+00  0.4194E-02  0.1389E+00  0.1108E-04  0.1101E-04  0.1172E-04  0.1212E-04  0.1057E-04  0.1113E-04  0.1145E-04  0.1804E-04  0.1246E-04  0.1210E-04  0.1115E-04
      6.571      0.000    -25.000 0.00000E+00 0.10000E+01 0.00000E+00  0.1042E-01  0.4712E-03  0.4257E+00  0.4197E-02  0.1390E+00  0.1109E-04  0.1102E-04  0.1173E-04  0.1213E-04  0.1058E-04  0.1114E-04  0.1146E-04  0.1806E-04  0.1247E-04  0.1211E-04  0.1116E-04
      6.571      0.000    -27.000 0.00000E+00 0.10000E+01 0.00000E+00  0.1040E-01  0.4704E-03  0.4250E+00  0.4190E-02  0.1387E+00  0.1107E-04  0.1100E-04  0.1171E-04  0.1211E-04  0.1056E-04  0.1112E-04  0.1144E-04  0.1802E-04  0.1245E-04  0.1209E-04  0.1114E-04
      6.571      0.000    -29.000 0.00000E+00 0.10000E+01 0.00000E+00  0.1041E-01  0.4707E-03  0.4253E+00  0.4193E-02  0.1389E+00  0.1108E-04  0.1101E-04  0.1172E-04  0.1212E-04  0.1057E-04  0.1113E-04  0.1145E-04  0.1804E-04  0.1246E-04  0.1210E-04  0.1115E-04
      6.571      0.000    -31.000 0.00000E+00 0.10000E+01 0.00000E+00  0.1048E-01  0.4741E-03  0.4283E+00  0.4223E-02  0.1398E+00  0.1115E-04  0.1108E-04  0.1180E-04  0.1221E-04  0.1065E-04  0.1121E-04  0.1153E-04  0.1817E-04  0.1255E-04  0.1218E-04  0.1123E-04
      6.571      0.000    -33.000 0.00000E+00 0.10000E+01 0.00000E+00  0.1047E-01  0.4734E-03  0.4278E+00  0.4218E-02  0.1396E+00  0.1114E-04  0.1107E-04  0.1179E-04  0.1219E-04  0.1063E-04  0.1119E-04  0.1152E-04  0.1814E-04  0.1253E-04  0.1217E-04  0.1121E-04
      6.571      0.000    -35.000 0.00000E+00 0.10000E+01 0.00000E+00  0.1049E-01  0.4746E-03  0.4288E+00  0.4228E-02  0.1400E+00  0.1117E-04  0.1110E-04  0.1181E-04  0.1222E-04  0.1066E-04  0.1122E-04  0.1154E-04  0.1819E-04  0.1256E-04  0.1219E-04  0.1124E-04
      6.571      0.000    -37.000 0.00000E+00 0.10000E+01 0.00000E+00  0.1054E-01  0.4767E-03  0.4307E+00  0.4246E-02  0.1406E+00  0.1122E-04  0.1115E-04  0.1187E-04  0.1227E-04  0.1071E-04  0.1127E-04  0.1160E-04  0.1827E-04  0.1262E-04  0.1225E-04  0.1129E-04
      6.571      0.000    -39.000 0.00000E+00 0.10000E+01 0.00000E+00  0.1045E-01  0.4726E-03  0.4270E+00  0.4210E-02  0.1394E+00  0.1112E-04  0.1105E-04  0.1176E-04  0.1217E-04  0.1061E-04  0.1118E-04  0.1150E-04  0.1811E-04  0.1251E-04  0.1215E-04  0.1119E-04
      8.982      0.000     -1.000 0.43474E+00 0.10000E+01 0.38329E-02  0.1118E-01  0.5054E-03  0.4567E+00  0.4503E-02  0.1491E+00  0.1189E-04  0.1182E-04  0.1258E-04  0.1301E-04  0.1135E-04  0.1195E-04  0.1229E-04  0.1936E-04  0.1338E-04  0.1299E-04  0.1197E-04
      8.982      0.000     -3.000 0.44285E+00 0.10000E+01 0.38331E-02  0.1118E-01  0.5055E-03  0.4567E+00  0.4503E-02  0.1491E+00  0.1189E-04  0.1182E-04  0.1258E-04  0.1301E-04  0.1135E-04  0.1195E-04  0.1229E-04  0.1937E-04  0.1338E-04  0.1299E-04  0.1197E-04
      8.982      0.000     -5.000 0.40720E+00 0.10000E+01 0.38317E-02  0.1117E-01  0.5053E-03  0.4565E+00  0.4501E-02  0.1490E+00  0.1189E-04  0.1181E-04  0.1258E-04  0.1301E-04  0.1135E-04  0.1195E-04  0.1229E-04  0.1936E-04  0.1337E-04  0.1298E-04  0.1197E-04
      8.982      0.000     -7.000 0.14991E+00 0.10000E+01 0.35983E-02  0.1049E-01  0.4745E-03  0.4287E+00  0.4227E-02  0.1400E+00  0.1117E-04  0.1110E-04  0.1181E-04  0.1222E-04  0.1066E-04  0.1122E-04  0.1154E-04  0.1818E-04  0.1256E-04  0.1219E-04  0.1124E-04
      8.982      0.000     -9.000 0.00000E+00 0.10000E+01 0.00000E+00  0.1041E-01  0.4707E-03  0.4253E+00  0.4193E-02  0.1388E+00  0.1108E-04  0.1101E-04  0.1172E-04  0.1212E-04  0.1057E-04  0.1113E-04  0.1145E-04  0.1804E-04  0.1246E-04  0.1210E-04  0.1115E-04
      8.982      0.000    -11.000 0.00000E+00 0.10000E+01 0.00000E+00  0.1038E-01  0.4696E-03  0.4243E+00  0.4184E-02  0.1385E+00  0.1105E-04  0.1098E-04  0.1169E-04  0.1209E-04  0.1055E-04  0.1111E-04  0.1143E-04  0.1800E-04  0.1243E-04  0.1207E-04  0.1112E-04
      8.982      0.000    -13.000 0.00000E+00 0.10000E+01 0.00000E+00  0.1036E-01  0.4688E-03  0.4235E+00  0.4176E-02  0.1383E+00  0.1103E-04  0.1096E-04  0.1167E-04  0.1207E-04  0.1053E-04  0.1109E-04  0.1140E-04  0.1796E-04  0.1241E-04  0.1205E-04  0.1110E-04
      8.982      0.000    -15.000 0.00000E+00 0.10000E+01 0.00000E+00  0.1035E-01  0.4683E-03  0.4231E+00  0.4172E-02  0.1382E+00  0.1102E-04  0.1095E-04  0.1166E-04  0.1206E-04  0.1052E-04  0.1108E-04  0.1139E-04  0.1795E-04  0.1240E-04  0.1204E-04  0.1109E-04
      8.982      0.000    -17.000 0.00000E+00 0.10000E+01 0.00000E+00  0.1035E-01  0.4681E-03  0.4230E+00  0.4171E-02  0.1381E+00  0.1102E-04  0.1095E-04  0.1165E-04  0.1206E-04  0.1052E-04  0.1107E-04  0.1139E-04  0.1794E-04  0.1239E-04  0.1203E-04  0.1109E-04
      8.982      0.000    -19.000 0.00000E+00 0.10000E+01 0.00000E+00  0.1037E-01  0.4691E-03  0.4239E+00  0.4179E-02  0.1384E+00  0.1104E-04  0.1097E-04  0.1168E-04  0.1208E-04  0.1054E-04  0.1109E-04  0.1141E-04  0.1798E-04  0.1242E-04  0.1206E-04  0.1111E-04
      8.982      0.000    -21.000 0.00000E+00 0.10000E+01 0.00000E+00  0.1039E-01  0.4699E-03  0.4246E+00  0.4187E-02  0.1386E+00  0.1106E-04  0.1099E-04  0.1170E-04  0.1210E-04  0.1056E-04  0.1111E-04  0.1143E-04  0.1801E-04  0.1244E-04  0.1208E-04  0.1113E-04
      8.982      0.000    -23.000 0.00000E+00 0.10000E+01 0.00000E+00  0.1039E-01  0.4700E-03  0.4247E+00  0.4187E-02  0.1387E+00  0.1106E-04  0.1099E-04  0.1170E-04  0.1210E-04  0.1056E-04  0.1111E-04  0.1143E-04  0.1801E-04  0.1244E-04  0.1208E-04  0.1113E-04