
          ---- Reaction Rate (mol/kg H2O/s) vs. grid blocks at specified times ----

 
VARIABLES =X,       Y,      Z,       quartz     ,k-feldspar ,smectite-ca,muscovite  ,siderite-2 ,albite~low ,kaolinite  ,dolomite-2 ,chlorite   ,dawsonite  ,oligoclase ,illite     ,hematite   ,ankerite-2 ,magnesite  ,chalcedony ,
ZONE T= "0.499669E+02 yr"  F=POINT
      0.500      0.000     -1.000 -0.4605E-14  0.1074E-14  0.8943E-14  0.4975E-15 -0.1456E-14  0.0000E+00 -0.1196E-17  0.0000E+00  0.0000E+00 -0.1836E-13  0.0000E+00 -0.1314E-16  0.0000E+00  0.0000E+00  0.0000E+00 -0.3896E-13
      0.500      0.000     -3.000 -0.4627E-14  0.1072E-14  0.8484E-14  0.4976E-15 -0.1188E-13  0.0000E+00 -0.1165E-17  0.0000E+00  0.0000E+00 -0.1755E-13  0.0000E+00 -0.1306E-16  0.0000E+00  0.0000E+00  0.0000E+00 -0.3918E-13
      0.500      0.000     -5.000 -0.5102E-14  0.1017E-14  0.3112E-14  0.4987E-15 -0.2537E-12  0.0000E+00 -0.7313E-18  0.0000E+00  0.0000E+00 -0.8018E-14  0.0000E+00 -0.1191E-16  0.0000E+00  0.0000E+00  0.0000E+00 -0.4369E-13
      0.500      0.000     -7.000 -0.1937E-13 -0.6719E-14 -0.5843E-13  0.4487E-15  0.2609E-11 -0.1648E-15 -0.7054E-18  0.0000E+00  0.0000E+00  0.1089E-12  0.0000E+00 -0.1007E-16  0.0000E+00  0.0000E+00  0.0000E+00 -0.1795E-12
      0.500      0.000     -9.000 -0.1963E-13 -0.1552E-14  0.2178E-16  0.4723E-15  0.3127E-11 -0.2945E-16  0.1433E-17  0.0000E+00  0.0000E+00  0.0000E+00  0.0000E+00 -0.1349E-18  0.0000E+00  0.0000E+00  0.0000E+00 -0.1820E-12
      0.500      0.000    -11.000 -0.1991E-13 -0.1373E-14 -0.1031E-15  0.4712E-15  0.3842E-11 -0.2481E-16  0.1470E-17  0.0000E+00  0.0000E+00  0.0000E+00  0.0000E+00  0.6597E-18  0.0000E+00  0.0000E+00  0.0000E+00 -0.1847E-12
      0.500      0.000    -13.000 -0.2002E-13 -0.1294E-14 -0.1806E-15  0.4704E-15  0.4118E-11 -0.2279E-16  0.1482E-17  0.0000E+00  0.0000E+00  0.0000E+00  0.0000E+00  0.1063E-17  0.0000E+00  0.0000E+00  0.0000E+00 -0.1857E-12
      0.500      0.000    -15.000 -0.2019E-13 -0.1289E-14 -0.2276E-15  0.4696E-15  0.4886E-11 -0.2265E-16  0.1486E-17  0.0000E+00  0.0000E+00  0.0000E+00  0.0000E+00  0.1279E-17  0.0000E+00  0.0000E+00  0.0000E+00 -0.1874E-12
      0.500      0.000    -17.000 -0.2010E-13 -0.1284E-14 -0.2955E-15  0.4701E-15  0.5571E-11 -0.2257E-16  0.1483E-17  0.0000E+00  0.0000E+00  0.0000E+00  0.0000E+00  0.1177E-17  0.0000E+00  0.0000E+00  0.0000E+00 -0.1865E-12
      0.500      0.000    -19.000 -0.2020E-13 -0.1322E-14 -0.3622E-15  0.4708E-15  0.9129E-11 -0.2354E-16  0.1482E-17  0.0000E+00  0.0000E+00  0.0000E+00  0.0000E+00  0.1134E-17  0.0000E+00  0.0000E+00  0.0000E+00 -0.1875E-12
      0.500      0.000    -21.000 -0.2032E-13 -0.1354E-14 -0.4707E-15  0.4713E-15  0.1683E-10 -0.2434E-16  0.1482E-17  0.0000E+00  0.0000E+00  0.0000E+00  0.0000E+00  0.1125E-17  0.0000E+00  0.0000E+00  0.0000E+00 -0.1885E-12
      0.500      0.000    -23.000 -0.2024E-13 -0.1347E-14 -0.7024E-15  0.4720E-15 -0.7969E-11 -0.2418E-16  0.1480E-17  0.0000E+00  0.0000E+00  0.0000E+00  0.0000E+00  0.1036E-17  0.0000E+00  0.0000E+00  0.0000E+00 -0.1878E-12
      0.500      0.000    -25.000 -0.1956E-13 -0.1246E-14 -0.1193E-14  0.4738E-15 -0.1926E-10 -0.2171E-16  0.1468E-17  0.0000E+00  0.0000E+00  0.0000E+00  0.0000E+00  0.5718E-18  0.0000E+00  0.0000E+00  0.0000E+00 -0.1813E-12
      0.500      0.000    -27.000 -0.2032E-13 -0.1367E-14 -0.1994E-14  0.4725E-15 -0.8486E-10 -0.2470E-16  0.1480E-17  0.0000E+00  0.0000E+00  0.0000E+00  0.0000E+00  0.9708E-18  0.0000E+00  0.0000E+00  0.0000E+00 -0.1886E-12
      0.500      0.000    -29.000 -0.1985E-13 -0.1308E-14 -0.4346E-14  0.4727E-15 -0.3354E-09 -0.2328E-16  0.1468E-17  0.0000E+00  0.0000E+00  0.0000E+00  0.0000E+00  0.5436E-18  0.0000E+00  0.0000E+00  0.0000E+00 -0.1841E-12
      0.500      0.000    -31.000 -0.1791E-13 -0.1143E-14 -0.3455E-13  0.4758E-15 -0.1246E-08 -0.1941E-16  0.1389E-17  0.0000E+00  0.0000E+00  0.0000E+00  0.0000E+00 -0.1510E-17  0.0000E+00  0.0000E+00  0.0000E+00 -0.1657E-12
      0.500      0.000    -33.000 -0.1435E-13 -0.3739E-14 -0.2162E-11  0.4198E-15 -0.1132E-08 -0.9092E-16 -0.4206E-17  0.0000E+00  0.0000E+00 -0.6281E-13  0.0000E+00 -0.1671E-15  0.0000E+00  0.0000E+00  0.0000E+00 -0.1317E-12
      0.500      0.000    -35.000 -0.1743E-13 -0.1150E-14 -0.5676E-13  0.4767E-15 -0.1260E-08 -0.1971E-16  0.1343E-17  0.0000E+00  0.0000E+00  0.0000E+00  0.0000E+00 -0.2615E-17  0.0000E+00  0.0000E+00  0.0000E+00 -0.1610E-12
      0.500      0.000    -37.000 -0.1980E-13 -0.1297E-14 -0.3876E-14  0.4725E-15 -0.1883E-09 -0.2302E-16  0.1467E-17  0.0000E+00  0.0000E+00  0.0000E+00  0.0000E+00  0.5611E-18  0.0000E+00  0.0000E+00  0.0000E+00 -0.1836E-12
      0.500      0.000    -39.000 -0.1941E-13 -0.1217E-14 -0.7636E-15  0.4759E-15 -0.6884E-10 -0.2095E-16  0.1467E-17  0.0000E+00  0.0000E+00  0.0000E+00  0.0000E+00  0.4478E-18  0.0000E+00  0.0000E+00  0.0000E+00 -0.1798E-12
      1.607      0.000     -1.000 -0.4605E-14  0.1074E-14  0.8944E-14  0.4975E-15 -0.1399E-14  0.0000E+00 -0.1196E-17  0.0000E+00  0.0000E+00 -0.1836E-13  0.0000E+00 -0.1314E-16  0.0000E+00  0.0000E+00  0.0000E+00 -0.3896E-13
      1.607      0.000     -3.000 -0.4627E-14  0.1072E-14  0.8487E-14  0.4976E-15 -0.1182E-13  0.0000E+00 -0.1165E-17  0.0000E+00  0.0000E+00 -0.1756E-13  0.0000E+00 -0.1306E-16  0.0000E+00  0.0000E+00  0.0000E+00 -0.3917E-13
      1.607      0.000     -5.000 -0.5094E-14  0.1018E-14  0.3190E-14  0.4987E-15 -0.2487E-12  0.0000E+00 -0.7373E-18  0.0000E+00  0.0000E+00 -0.8156E-14  0.0000E+00 -0.1193E-16  0.0000E+00  0.0000E+00  0.0000E+00 -0.4362E-13
      1.607      0.000     -7.000 -0.1937E-13 -0.6718E-14 -0.5837E-13  0.4487E-15  0.2616E-11 -0.1648E-15 -0.7051E-18  0.0000E+00  0.0000E+00  0.1088E-12  0.0000E+00 -0.1007E-16  0.0000E+00  0.0000E+00  0.0000E+00 -0.1795E-12
      1.607      0.000     -9.000 -0.1971E-13 -0.1565E-14  0.3042E-16  0.4721E-15  0.3324E-11 -0.2979E-16  0.1435E-17  0.0000E+00  0.0000E+00  0.0000E+00  0.0000E+00 -0.1112E-18  0.0000E+00  0.0000E+00  0.0000E+00 -0.1827E-12
      1.607      0.000    -11.000 -0.1986E-13 -0.1368E-14 -0.1066E-15  0.4713E-15  0.3710E-11 -0.2468E-16  0.1469E-17  0.0000E+00  0.0000E+00  0.0000E+00  0.0000E+00  0.6263E-18  0.0000E+00  0.0000E+00  0.0000E+00 -0.1842E-12
      1.607      0.000    -13.000 -0.2000E-13 -0.1293E-14 -0.1816E-15  0.4704E-15  0.4091E-11 -0.2274E-16  0.1482E-17  0.0000E+00  0.0000E+00  0.0000E+00  0.0000E+00  0.1048E-17  0.0000E+00  0.0000E+00  0.0000E+00 -0.1856E-12
      1.607      0.000    -15.000 -0.2022E-13 -0.1294E-14 -0.2245E-15  0.4696E-15  0.4987E-11 -0.2276E-16  0.1487E-17  0.0000E+00  0.0000E+00  0.0000E+00  0.0000E+00  0.1292E-17  0.0000E+00  0.0000E+00  0.0000E+00 -0.1876E-12
      1.607      0.000    -17.000 -0.2029E-13 -0.1313E-14 -0.2787E-15  0.4697E-15  0.6517E-11 -0.2328E-16  0.1486E-17  0.0000E+00  0.0000E+00  0.0000E+00  0.0000E+00  0.1289E-17  0.0000E+00  0.0000E+00  0.0000E+00 -0.1883E-12
      1.607      0.000    -19.000 -0.2013E-13 -0.1311E-14 -0.3681E-15  0.4710E-15  0.8603E-11 -0.2326E-16  0.1481E-17  0.0000E+00  0.0000E+00  0.0000E+00  0.0000E+00  0.1086E-17  0.0000E+00  0.0000E+00  0.0000E+00 -0.1867E-12
      1.607      0.000    -21.000 -0.2016E-13 -0.1329E-14 -0.4792E-15  0.4717E-15  0.1425E-10 -0.2373E-16  0.1480E-17  0.0000E+00  0.0000E+00  0.0000E+00  0.0000E+00  0.1031E-17  0.0000E+00  0.0000E+00  0.0000E+00 -0.1870E-12
      1.607      0.000    -23.000 -0.1963E-13 -0.1253E-14 -0.7593E-15  0.4734E-15 -0.6583E-11 -0.2187E-16  0.1470E-17  0.0000E+00  0.0000E+00  0.0000E+00  0.0000E+00  0.6576E-18  0.0000E+00  0.0000E+00  0.0000E+00 -0.1820E-12
      1.607      0.000    -25.000 -0.2046E-13 -0.1383E-14 -0.1026E-14  0.4720E-15 -0.3918E-11 -0.2508E-16  0.1482E-17  0.0000E+00  0.0000E+00  0.0000E+00  0.0000E+00  0.1118E-17  0.0000E+00  0.0000E+00  0.0000E+00 -0.1899E-12
      1.607      0.000    -27.000 -0.2022E-13 -0.1351E-14 -0.1882E-14  0.4727E-15 -0.9220E-10 -0.2429E-16  0.1478E-17  0.0000E+00  0.0000E+00  0.0000E+00  0.0000E+00  0.9170E-18  0.0000E+00  0.0000E+00  0.0000E+00 -0.1876E-12
      1.607      0.000    -29.000 -0.2023E-13 -0.1363E-14 -0.3941E-14  0.4724E-15 -0.2634E-09 -0.2463E-16  0.1476E-17  0.0000E+00  0.0000E+00  0.0000E+00  0.0000E+00  0.7912E-18  0.0000E+00  0.0000E+00  0.0000E+00 -0.1877E-12
      1.607      0.000    -31.000 -0.2011E-13 -0.1445E-14 -0.2396E-13  0.4723E-15 -0.1018E-08 -0.2679E-16  0.1456E-17  0.0000E+00  0.0000E+00  0.0000E+00  0.0000E+00 -0.2985E-18  0.0000E+00  0.0000E+00  0.0000E+00 -0.1866E-12
      1.607      0.000    -33.000 -0.1441E-13 -0.2758E-14 -0.1262E-11  0.4570E-15 -0.1447E-08 -0.6418E-16 -0.1746E-17  0.0000E+00  0.0000E+00 -0.2289E-13  0.0000E+00 -0.8756E-16  0.0000E+00  0.0000E+00  0.0000E+00 -0.1323E-12
      1.607      0.000    -35.000 -0.1912E-13 -0.3413E-14 -0.6838E-12  0.4695E-15 -0.1081E-08 -0.7914E-16  0.7308E-18  0.0000E+00  0.0000E+00  0.5885E-12  0.0000E+00 -0.3027E-16  0.0000E+00  0.0000E+00  0.0000E+00 -0.1771E-12
      1.607      0.000    -37.000 -0.1997E-13 -0.1320E-14 -0.3483E-14  0.4726E-15 -0.2013E-09 -0.2356E-16  0.1471E-17  0.0000E+00  0.0000E+00  0.0000E+00  0.0000E+00  0.6774E-18  0.0000E+00  0.0000E+00  0.0000E+00 -0.1852E-12
      1.607      0.000    -39.000 -0.1935E-13 -0.1209E-14 -0.7724E-15  0.4761E-15 -0.1895E-10 -0.2077E-16  0.1466E-17  0.0000E+00  0.0000E+00  0.0000E+00  0.0000E+00  0.4098E-18  0.0000E+00  0.0000E+00  0.0000E+00 -0.1793E-12
      2.953      0.000     -1.000 -0.4605E-14  0.1074E-14  0.8944E-14  0.4975E-15 -0.1374E-14  0.0000E+00 -0.1196E-17  0.0000E+00  0.0000E+00 -0.1837E-13  0.0000E+00 -0.1314E-16  0.0000E+00  0.0000E+00  0.0000E+00 -0.3896E-13
      2.953      0.000     -3.000 -0.4626E-14  0.1072E-14  0.8496E-14  0.4976E-15 -0.1166E-13  0.0000E+00 -0.1166E-17  0.0000E+00  0.0000E+00 -0.1757E-13  0.0000E+00 -0.1306E-16  0.0000E+00  0.0000E+00  0.0000E+00 -0.3917E-13
      2.953      0.000     -5.000 -0.5076E-14  0.1020E-14  0.3382E-14  0.4987E-15 -0.2367E-12  0.0000E+00 -0.7521E-18  0.0000E+00  0.0000E+00 -0.8498E-14  0.0000E+00 -0.1197E-16  0.0000E+00  0.0000E+00  0.0000E+00 -0.4345E-13
      2.953      0.000     -7.000 -0.1933E-13 -0.6667E-14 -0.5820E-13  0.4489E-15  0.2553E-11 -0.1635E-15 -0.7026E-18  0.0000E+00  0.0000E+00  0.1084E-12  0.0000E+00 -0.1007E-16  0.0000E+00  0.0000E+00  0.0000E+00 -0.1791E-12
      2.953      0.000     -9.000 -0.1968E-13 -0.1565E-14  0.2995E-16  0.4721E-15  0.3227E-11 -0.2978E-16  0.1433E-17  0.0000E+00  0.0000E+00  0.0000E+00  0.0000E+00 -0.1261E-18  0.0000E+00  0.0000E+00  0.0000E+00 -0.1825E-12
      2.953      0.000    -11.000 -0.1990E-13 -0.1375E-14 -0.1019E-15  0.4713E-15  0.3791E-11 -0.2486E-16  0.1470E-17  0.0000E+00  0.0000E+00  0.0000E+00  0.0000E+00  0.6425E-18  0.0000E+00  0.0000E+00  0.0000E+00 -0.1846E-12
      2.953      0.000    -13.000 -0.2009E-13 -0.1307E-14 -0.1723E-15  0.4703E-15  0.4362E-11 -0.2310E-16  0.1483E-17  0.0000E+00  0.0000E+00  0.0000E+00  0.0000E+00  0.1099E-17  0.0000E+00  0.0000E+00  0.0000E+00 -0.1864E-12
      2.953      0.000    -15.000 -0.2011E-13 -0.1277E-14 -0.2338E-15  0.4698E-15  0.4616E-11 -0.2236E-16  0.1485E-17  0.0000E+00  0.0000E+00  0.0000E+00  0.0000E+00  0.1221E-17  0.0000E+00  0.0000E+00  0.0000E+00 -0.1865E-12
      2.953      0.000    -17.000 -0.2010E-13 -0.1285E-14 -0.2923E-15  0.4702E-15  0.5533E-11 -0.2258E-16  0.1483E-17  0.0000E+00  0.0000E+00  0.0000E+00  0.0000E+00  0.1175E-17  0.0000E+00  0.0000E+00  0.0000E+00 -0.1865E-12
      2.953      0.000    -19.000 -0.2015E-13 -0.1314E-14 -0.3661E-15  0.4710E-15  0.8916E-11 -0.2334E-16  0.1481E-17  0.0000E+00  0.0000E+00  0.0000E+00  0.0000E+00  0.1098E-17  0.0000E+00  0.0000E+00  0.0000E+00 -0.1869E-12
      2.953      0.000    -21.000 -0.2019E-13 -0.1334E-14 -0.4729E-15  0.4717E-15  0.1389E-10 -0.2385E-16  0.1480E-17  0.0000E+00  0.0000E+00  0.0000E+00  0.0000E+00  0.1048E-17  0.0000E+00  0.0000E+00  0.0000E+00 -0.1874E-12
      2.953      0.000    -23.000 -0.1978E-13 -0.1276E-14 -0.7185E-15  0.4731E-15 -0.1599E-10 -0.2244E-16  0.1473E-17  0.0000E+00  0.0000E+00  0.0000E+00  0.0000E+00  0.7574E-18  0.0000E+00  0.0000E+00  0.0000E+00 -0.1835E-12
      2.953      0.000    -25.000 -0.1971E-13 -0.1267E-14 -0.1112E-14  0.4736E-15 -0.2102E-10 -0.2222E-16  0.1471E-17  0.0000E+00  0.0000E+00  0.0000E+00  0.0000E+00  0.6690E-18  0.0000E+00  0.0000E+00  0.0000E+00 -0.1827E-12
      2.953      0.000    -27.000 -0.2013E-13 -0.1335E-14 -0.1808E-14  0.4729E-15 -0.9243E-10 -0.2391E-16  0.1477E-17  0.0000E+00  0.0000E+00  0.0000E+00  0.0000E+00  0.8722E-18  0.0000E+00  0.0000E+00  0.0000E+00 -0.1868E-12
      2.953      0.000    -29.000 -0.2034E-13 -0.1378E-14 -0.3311E-14  0.4723E-15 -0.3391E-09 -0.2497E-16  0.1478E-17  0.0000E+00  0.0000E+00  0.0000E+00  0.0000E+00  0.8951E-18  0.0000E+00  0.0000E+00  0.0000E+00 -0.1888E-12
      2.953      0.000    -31.000 -0.2017E-13 -0.1405E-14 -0.1407E-13  0.4727E-15 -0.7927E-09 -0.2573E-16  0.1467E-17  0.0000E+00  0.0000E+00  0.0000E+00  0.0000E+00  0.8360E-19  0.0000E+00  0.0000E+00  0.0000E+00 -0.1871E-12
      2.953      0.000    -33.000 -0.1328E-13 -0.1535E-14 -0.6084E-12  0.4745E-15 -0.1304E-08 -0.3123E-16 -0.5454E-18  0.0000E+00  0.0000E+00  0.5761E-12  0.0000E+00 -0.4204E-16  0.0000E+00  0.0000E+00  0.0000E+00 -0.1215E-12
      2.953      0.000    -35.000 -0.1840E-13 -0.1184E-14 -0.2713E-13  0.4762E-15 -0.7936E-09 -0.2035E-16  0.1415E-17  0.0000E+00  0.0000E+00  0.0000E+00  0.0000E+00 -0.1045E-17  0.0000E+00  0.0000E+00  0.0000E+00 -0.1703E-12
      2.953      0.000    -37.000 -0.2006E-13 -0.5375E-14 -0.1362E-11  0.4609E-15 -0.3644E-09 -0.1301E-15  0.1438E-18  0.0000E+00  0.0000E+00  0.2171E-11  0.0000E+00 -0.6524E-16  0.0000E+00  0.0000E+00  0.0000E+00 -0.1861E-12
      2.953      0.000    -39.000 -0.2058E-13 -0.1398E-14 -0.5419E-15  0.4737E-15 -0.1886E-10 -0.2541E-16  0.1487E-17  0.0000E+00  0.0000E+00  0.0000E+00  0.0000E+00  0.1158E-17  0.0000E+00  0.0000E+00  0.0000E+00 -0.1910E-12
      4.586      0.000     -1.000 -0.4605E-14  0.1074E-14  0.8946E-14  0.4975E-15 -0.1324E-14  0.0000E+00 -0.1196E-17  0.0000E+00  0.0000E+00 -0.1837E-13  0.0000E+00 -0.1314E-16  0.0000E+00  0.0000E+00  0.0000E+00 -0.3896E-13
      4.586      0.000     -3.000 -0.4625E-14  0.1072E-14  0.8513E-14  0.4976E-15 -0.1135E-13  0.0000E+00 -0.1168E-17  0.0000E+00  0.0000E+00 -0.1760E-13  0.0000E+00 -0.1307E-16  0.0000E+00  0.0000E+00  0.0000E+00 -0.3915E-13
      4.586      0.000     -5.000 -0.5044E-14  0.1024E-14  0.3728E-14  0.4986E-15 -0.2161E-12  0.0000E+00 -0.7790E-18  0.0000E+00  0.0000E+00 -0.9112E-14  0.0000E+00 -0.1204E-16  0.0000E+00  0.0000E+00  0.0000E+00 -0.4314E-13
      4.586      0.000     -7.000 -0.1936E-13 -0.6705E-14 -0.5817E-13  0.4487E-15  0.2602E-11 -0.1644E-15 -0.7024E-18  0.0000E+00  0.0000E+00  0.1084E-12  0.0000E+00 -0.1006E-16  0.0000E+00  0.0000E+00  0.0000E+00 -0.1794E-12
      4.586      0.000     -9.000 -0.1966E-13 -0.1567E-14  0.3135E-16  0.4722E-15  0.3196E-11 -0.2984E-16  0.1432E-17  0.0000E+00  0.0000E+00  0.0000E+00  0.0000E+00 -0.1413E-18  0.0000E+00  0.0000E+00  0.0000E+00 -0.1823E-12
      4.586      0.000    -11.000 -0.1988E-13 -0.1376E-14 -0.1010E-15  0.4713E-15  0.3731E-11 -0.2488E-16  0.1469E-17  0.0000E+00  0.0000E+00  0.0000E+00  0.0000E+00  0.6214E-18  0.0000E+00  0.0000E+00  0.0000E+00 -0.1844E-12
      4.586      0.000    -13.000 -0.2011E-13 -0.1311E-14 -0.1706E-15  0.4702E-15  0.4361E-11 -0.2319E-16  0.1483E-17  0.0000E+00  0.0000E+00  0.0000E+00  0.0000E+00  0.1100E-17  0.0000E+00  0.0000E+00  0.0000E+00 -0.1865E-12
      4.586      0.000    -15.000 -0.2022E-13 -0.1294E-14 -0.2215E-15  0.4696E-15  0.5094E-11 -0.2276E-16  0.1487E-17  0.0000E+00  0.0000E+00  0.0000E+00  0.0000E+00  0.1283E-17  0.0000E+00  0.0000E+00  0.0000E+00 -0.1876E-12
      4.586      0.000    -17.000 -0.2012E-13 -0.1288E-14 -0.2875E-15  0.4701E-15  0.5600E-11 -0.2266E-16  0.1484E-17  0.0000E+00  0.0000E+00  0.0000E+00  0.0000E+00  0.1191E-17  0.0000E+00  0.0000E+00  0.0000E+00 -0.1867E-12
      4.586      0.000    -19.000 -0.2023E-13 -0.1325E-14 -0.3514E-15  0.4708E-15  0.9170E-11 -0.2361E-16  0.1482E-17  0.0000E+00  0.0000E+00  0.0000E+00  0.0000E+00  0.1148E-17  0.0000E+00  0.0000E+00  0.0000E+00 -0.1877E-12
      4.586      0.000    -21.000 -0.2007E-13 -0.1314E-14 -0.4740E-15  0.4720E-15  0.5618E-11 -0.2337E-16  0.1479E-17  0.0000E+00  0.0000E+00  0.0000E+00  0.0000E+00  0.9774E-18  0.0000E+00  0.0000E+00  0.0000E+00 -0.1862E-12
      4.586      0.000    -23.000 -0.2024E-13 -0.1345E-14 -0.6430E-15  0.4722E-15  0.1282E-10 -0.2414E-16  0.1480E-17  0.0000E+00  0.0000E+00  0.0000E+00  0.0000E+00  0.1034E-17  0.0000E+00  0.0000E+00  0.0000E+00 -0.1878E-12
      4.586      0.000    -25.000 -0.1459E-13 -0.2290E-14 -0.8689E-12  0.4688E-15 -0.5877E-10 -0.5140E-16 -0.6176E-18  0.0000E+00  0.0000E+00  0.1537E-11  0.0000E+00 -0.5582E-16  0.0000E+00  0.0000E+00  0.0000E+00 -0.1340E-12
      4.586      0.000    -27.000 -0.1424E-13 -0.2085E-14 -0.7915E-12  0.4701E-15 -0.1167E-09 -0.4594E-16 -0.6038E-18  0.0000E+00  0.0000E+00  0.1397E-11  0.0000E+00 -0.5183E-16  0.0000E+00  0.0000E+00  0.0000E+00 -0.1307E-12
      4.586      0.000    -29.000 -0.2000E-13 -0.3728E-14 -0.6869E-12  0.4688E-15 -0.3145E-09 -0.8688E-16  0.8345E-18  0.0000E+00  0.0000E+00  0.1121E-11  0.0000E+00 -0.2868E-16  0.0000E+00  0.0000E+00  0.0000E+00 -0.1855E-12
      4.586      0.000    -31.000 -0.2047E-13 -0.1434E-14 -0.1040E-13  0.4725E-15 -0.6234E-09 -0.2640E-16  0.1476E-17  0.0000E+00  0.0000E+00  0.0000E+00  0.0000E+00  0.5002E-18  0.0000E+00  0.0000E+00  0.0000E+00 -0.1900E-12
      4.586      0.000    -33.000 -0.1852E-13 -0.3421E-14 -0.7846E-12  0.4707E-15 -0.1252E-08 -0.7972E-16  0.5126E-18  0.0000E+00  0.0000E+00  0.1130E-11  0.0000E+00 -0.3718E-16  0.0000E+00  0.0000E+00  0.0000E+00 -0.1714E-12
      4.586      0.000    -35.000 -0.1503E-13 -0.2530E-14 -0.9267E-12  0.4678E-15 -0.6011E-09 -0.5772E-16 -0.6142E-18  0.0000E+00  0.0000E+00  0.1610E-11  0.0000E+00 -0.5829E-16  0.0000E+00  0.0000E+00  0.0000E+00 -0.1382E-12
      4.586      0.000    -37.000 -0.2053E-13 -0.1400E-14 -0.2108E-14  0.4717E-15 -0.1320E-09 -0.2550E-16  0.1481E-17  0.0000E+00  0.0000E+00  0.0000E+00  0.0000E+00  0.1095E-17  0.0000E+00  0.0000E+00  0.0000E+00 -0.1906E-12
      4.586      0.000    -39.000 -0.1953E-13 -0.1238E-14 -0.6551E-15  0.4757E-15 -0.1070E-10 -0.2148E-16  0.1470E-17  0.0000E+00  0.0000E+00  0.0000E+00  0.0000E+00  0.5232E-18  0.0000E+00  0.0000E+00  0.0000E+00 -0.1810E-12
      6.571      0.000     -1.000 -0.4605E-14  0.1074E-14  0.8949E-14  0.4975E-15 -0.1235E-14  0.0000E+00 -0.1196E-17  0.0000E+00  0.0000E+00 -0.1837E-13  0.0000E+00 -0.1314E-16  0.0000E+00  0.0000E+00  0.0000E+00 -0.3897E-13
      6.571      0.000     -3.000 -0.4622E-14  0.1072E-14  0.8543E-14  0.4976E-15 -0.1082E-13  0.0000E+00 -0.1170E-17  0.0000E+00  0.0000E+00 -0.1765E-13  0.0000E+00 -0.1308E-16  0.0000E+00  0.0000E+00  0.0000E+00 -0.3913E-13
      6.571      0.000     -5.000 -0.4993E-14  0.1030E-14  0.4275E-14  0.4986E-15 -0.1852E-12  0.0000E+00 -0.8220E-18  0.0000E+00  0.0000E+00 -0.1008E-13  0.0000E+00 -0.1216E-16  0.0000E+00  0.0000E+00  0.0000E+00 -0.4266E-13
      6.571      0.000     -7.000 -0.1932E-13 -0.6662E-14 -0.5795E-13  0.4489E-15  0.2548E-11 -0.1633E-15 -0.6987E-18  0.0000E+00  0.0000E+00  0.1080E-12  0.0000E+00 -0.1005E-16  0.0000E+00  0.0000E+00  0.0000E+00 -0.1790E-12
      6.571      0.000     -9.000 -0.1964E-13 -0.1576E-14  0.3724E-16  0.4722E-15  0.3244E-11 -0.3007E-16  0.1430E-17  0.0000E+00  0.0000E+00  0.0000E+00  0.0000E+00 -0.1652E-18  0.0000E+00  0.0000E+00  0.0000E+00 -0.1821E-12
      6.571      0.000    -11.000 -0.1985E-13 -0.1377E-14 -0.9986E-16  0.4714E-15  0.3656E-11 -0.2490E-16  0.1468E-17  0.0000E+00  0.0000E+00  0.0000E+00  0.0000E+00  0.5824E-18  0.0000E+00  0.0000E+00  0.0000E+00 -0.1841E-12
      6.571      0.000    -13.000 -0.2000E-13 -0.1299E-14 -0.1758E-15  0.4706E-15  0.4099E-11 -0.2290E-16  0.1482E-17  0.0000E+00  0.0000E+00  0.0000E+00  0.0000E+00  0.1023E-17  0.0000E+00  0.0000E+00  0.0000E+00 -0.1856E-12
      6.571      0.000    -15.000 -0.2019E-13 -0.1291E-14 -0.2219E-15  0.4697E-15  0.4932E-11 -0.2270E-16  0.1487E-17  0.0000E+00  0.0000E+00  0.0000E+00  0.0000E+00  0.1265E-17  0.0000E+00  0.0000E+00  0.0000E+00 -0.1874E-12
      6.571      0.000    -17.000 -0.2028E-13 -0.1310E-14 -0.2685E-15  0.4698E-15  0.6291E-11 -0.2318E-16  0.1486E-17  0.0000E+00  0.0000E+00  0.0000E+00  0.0000E+00  0.1286E-17  0.0000E+00  0.0000E+00  0.0000E+00 -0.1882E-12
      6.571      0.000    -19.000 -0.2032E-13 -0.1338E-14 -0.3331E-15  0.4706E-15  0.9603E-11 -0.2392E-16  0.1484E-17  0.0000E+00  0.0000E+00  0.0000E+00  0.0000E+00  0.1209E-17  0.0000E+00  0.0000E+00  0.0000E+00 -0.1886E-12
      6.571      0.000    -21.000 -0.2005E-13 -0.1310E-14 -0.4610E-15  0.4720E-15  0.1238E-10 -0.2326E-16  0.1478E-17  0.0000E+00  0.0000E+00  0.0000E+00  0.0000E+00  0.9686E-18  0.0000E+00  0.0000E+00  0.0000E+00 -0.1860E-12
      6.571      0.000    -23.000 -0.2000E-13 -0.1308E-14 -0.6177E-15  0.4726E-15 -0.1945E-10 -0.2321E-16  0.1477E-17  0.0000E+00  0.0000E+00  0.0000E+00  0.0000E+00  0.9031E-18  0.0000E+00  0.0000E+00  0.0000E+00 -0.1856E-12
      6.571      0.000    -25.000 -0.1994E-13 -0.1300E-14 -0.8845E-15  0.4731E-15 -0.4050E-10 -0.2304E-16  0.1475E-17  0.0000E+00  0.0000E+00  0.0000E+00  0.0000E+00  0.8280E-18  0.0000E+00  0.0000E+00  0.0000E+00 -0.1849E-12
      6.571      0.000    -27.000 -0.2033E-13 -0.1390E-14 -0.6253E-14  0.4723E-15 -0.9118E-10 -0.2529E-16  0.1477E-17  0.0000E+00  0.0000E+00  0.0000E+00  0.0000E+00  0.7090E-18  0.0000E+00  0.0000E+00  0.0000E+00 -0.1887E-12
      6.571      0.000    -29.000 -0.2018E-13 -0.1350E-14 -0.3080E-14  0.4727E-15 -0.1412E-09 -0.2429E-16  0.1476E-17  0.0000E+00  0.0000E+00  0.0000E+00  0.0000E+00  0.8227E-18  0.0000E+00  0.0000E+00  0.0000E+00 -0.1873E-12
      6.571      0.000    -31.000 -0.1574E-13 -0.2991E-14 -0.1070E-11  0.4654E-15 -0.5620E-09 -0.6983E-16 -0.6337E-18  0.0000E+00  0.0000E+00  0.1868E-11  0.0000E+00 -0.6526E-16  0.0000E+00  0.0000E+00  0.0000E+00 -0.1449E-12
      6.571      0.000    -33.000 -0.1925E-13 -0.1905E-14 -0.1725E-12  0.4747E-15 -0.9599E-09 -0.3921E-16  0.1295E-17  0.0000E+00  0.0000E+00  0.0000E+00  0.0000E+00 -0.6217E-17  0.0000E+00  0.0000E+00  0.0000E+00 -0.1784E-12
      6.571      0.000    -35.000 -0.1873E-13 -0.5492E-14 -0.1789E-11  0.4550E-15 -0.5311E-09 -0.1345E-15 -0.6980E-18  0.0000E+00  0.0000E+00  0.3090E-11  0.0000E+00 -0.9903E-16  0.0000E+00  0.0000E+00  0.0000E+00 -0.1734E-12
      6.571      0.000    -37.000 -0.1726E-13 -0.9169E-15 -0.3130E-14  0.4785E-15 -0.1193E-09 -0.1350E-16  0.1408E-17  0.0000E+00  0.0000E+00  0.0000E+00  0.0000E+00 -0.6070E-18  0.0000E+00  0.0000E+00  0.0000E+00 -0.1594E-12
      6.571      0.000    -39.000 -0.1389E-13 -0.1879E-14 -0.7196E-12  0.4724E-15 -0.4320E-10 -0.4045E-16 -0.5899E-18  0.0000E+00  0.0000E+00  0.1273E-11  0.0000E+00 -0.4820E-16  0.0000E+00  0.0000E+00  0.0000E+00 -0.1273E-12
      8.982      0.000     -1.000 -0.4604E-14  0.1074E-14  0.8954E-14  0.4975E-15 -0.1093E-14  0.0000E+00 -0.1197E-17  0.0000E+00  0.0000E+00 -0.1838E-13  0.0000E+00 -0.1314E-16  0.0000E+00  0.0000E+00  0.0000E+00 -0.3896E-13
      8.982      0.000     -3.000 -0.4618E-14  0.1073E-14  0.8588E-14  0.4976E-15 -0.1002E-13  0.0000E+00 -0.1174E-17  0.0000E+00  0.0000E+00 -0.1774E-13  0.0000E+00 -0.1309E-16  0.0000E+00  0.0000E+00  0.0000E+00 -0.3910E-13
      8.982      0.000     -5.000 -0.4922E-14  0.1039E-14  0.5031E-14  0.4984E-15 -0.1446E-12  0.0000E+00 -0.8827E-18  0.0000E+00  0.0000E+00 -0.1143E-13  0.0000E+00 -0.1232E-16  0.0000E+00  0.0000E+00  0.0000E+00 -0.4198E-13
      8.982      0.000     -7.000 -0.1806E-13 -0.5248E-14 -0.5578E-13  0.4545E-15  0.7816E-12 -0.1275E-15 -0.6426E-18  0.0000E+00  0.0000E+00  0.1026E-12  0.0000E+00 -0.1013E-16  0.0000E+00  0.0000E+00  0.0000E+00 -0.1670E-12
      8.982      0.000     -9.000 -0.1964E-13 -0.1595E-14  0.4856E-16  0.4722E-15  0.3270E-11 -0.3057E-16  0.1427E-17  0.0000E+00  0.0000E+00  0.0000E+00  0.0000E+00 -0.1969E-18  0.0000E+00  0.0000E+00  0.0000E+00 -0.1821E-12
      8.982      0.000    -11.000 -0.1989E-13 -0.1392E-14 -0.8918E-16  0.4713E-15  0.3756E-11 -0.2527E-16  0.1468E-17  0.0000E+00  0.0000E+00  0.0000E+00  0.0000E+00  0.5832E-18  0.0000E+00  0.0000E+00  0.0000E+00 -0.1845E-12
      8.982      0.000    -13.000 -0.2006E-13 -0.1312E-14 -0.1649E-15  0.4704E-15  0.4279E-11 -0.2323E-16  0.1482E-17  0.0000E+00  0.0000E+00  0.0000E+00  0.0000E+00  0.1041E-17  0.0000E+00  0.0000E+00  0.0000E+00 -0.1861E-12
      8.982      0.000    -15.000 -0.2010E-13 -0.1278E-14 -0.2255E-15  0.4700E-15  0.4636E-11 -0.2238E-16  0.1485E-17  0.0000E+00  0.0000E+00  0.0000E+00  0.0000E+00  0.1204E-17  0.0000E+00  0.0000E+00  0.0000E+00 -0.1865E-12
      8.982      0.000    -17.000 -0.2022E-13 -0.1299E-14 -0.2661E-15  0.4699E-15  0.6148E-11 -0.2292E-16  0.1486E-17  0.0000E+00  0.0000E+00  0.0000E+00  0.0000E+00  0.1265E-17  0.0000E+00  0.0000E+00  0.0000E+00 -0.1877E-12
      8.982      0.000    -19.000 -0.2014E-13 -0.1307E-14 -0.3345E-15  0.4709E-15  0.8028E-11 -0.2315E-16  0.1482E-17  0.0000E+00  0.0000E+00  0.0000E+00  0.0000E+00  0.1121E-17  0.0000E+00  0.0000E+00  0.0000E+00 -0.1869E-12
      8.982      0.000    -21.000 -0.2013E-13 -0.1320E-14 -0.4247E-15  0.4717E-15  0.1259E-10 -0.2349E-16  0.1480E-17  0.0000E+00  0.0000E+00  0.0000E+00  0.0000E+00  0.1035E-17  0.0000E+00  0.0000E+00  0.0000E+00 -0.1868E-12
      8.982      0.000    -23.000 -0.2027E-13 -0.1346E-14 -0.5404E-15  0.4719E-15  0.1739E-10 -0.2415E-16  0.1481E-17  0.0000E+00  0.0000E+00  0.0000E+00  0.0000E+00  0.1076E-17  0.0000E+00  0.0000E+00  0.0000E+00 -0.1881E-12
      8.982      0.000    -25.000 -0.1888E-13 -0.2554E-14 -0.3968E-12  0.4725E-15 -0.4495E-10 -0.5654E-16  0.1040E-17  0.0000E+00  0.0000E+00  0.6864E-12  0.0000E+00 -0.1633E-16  0.0000E+00  0.0000E+00  0.0000E+00 -0.1748E-12
      8.982      0.000    -27.000 -0.1948E-13 -0.1233E-14 -0.1488E-14  0.4738E-15 -0.5607E-10 -0.2139E-16  0.1466E-17  0.0000E+00  0.0000E+00  0.0000E+00  0.0000E+00  0.5135E-18  0.0000E+00  0.0000E+00  0.0000E+00 -0.1806E-12
      8.982      0.000    -29.000 -0.1522E-13 -0.2667E-14 -0.9853E-12  0.4667E-15 -0.1980E-09 -0.6133E-16 -0.6288E-18  0.0000E+00  0.0000E+00  0.1737E-11  0.0000E+00 -0.6136E-16  0.0000E+00  0.0000E+00  0.0000E+00 -0.1400E-12
      8.982      0.000    -31.000 -0.1770E-13 -0.4527E-14 -0.1520E-11  0.4585E-15 -0.4015E-09 -0.1098E-15 -0.6803E-18  0.0000E+00  0.0000E+00  0.2674E-11  0.0000E+00 -0.8662E-16  0.0000E+00  0.0000E+00  0.0000E+00 -0.1636E-12
      8.982      0.000    -33.000 -0.2013E-13 -0.1397E-14 -0.1441E-13  0.4735E-15 -0.6089E-09 -0.2552E-16  0.1467E-17  0.0000E+00  0.0000E+00  0.0000E+00  0.0000E+00  0.2130E-19  0.0000E+00  0.0000E+00  0.0000E+00 -0.1868E-12
      8.982      0.000    -35.000 -0.1533E-13 -0.2717E-14 -0.9944E-12  0.4671E-15 -0.3787E-09 -0.6264E-16 -0.6257E-18  0.0000E+00  0.0000E+00  0.1745E-11  0.0000E+00 -0.6167E-16  0.0000E+00  0.0000E+00  0.0000E+00 -0.1411E-12
      8.982      0.000    -37.000 -0.1487E-13 -0.2433E-14 -0.9104E-12  0.4684E-15 -0.1487E-09 -0.5515E-16 -0.6145E-18  0.0000E+00  0.0000E+00  0.1606E-11  0.0000E+00 -0.5759E-16  0.0000E+00  0.0000E+00  0.0000E+00 -0.1367E-12
      8.982      0.000    -39.000 -0.1833E-13 -0.5093E-14 -0.1682E-11  0.4572E-15 -0.4933E-10 -0.1243E-15 -0.6943E-18  0.0000E+00  0.0000E+00  0.2978E-11  0.0000E+00 -0.9426E-16  0.0000E+00  0.0000E+00  0.0000E+00 -0.1696E-12
     11.910      0.000     -1.000 -0.4605E-14  0.1074E-14  0.8961E-14  0.4975E-15 -0.9211E-15  0.0000E+00 -0.1197E-17  0.0000E+00  0.0000E+00 -0.1840E-13  0.0000E+00 -0.1314E-16  0.0000E+00  0.0000E+00  0.0000E+00 -0.3896E-13
     11.910      0.000     -3.000 -0.4613E-14  0.1073E-14  0.8653E-14  0.4976E-15 -0.8843E-14  0.0000E+00 -0.1180E-17  0.0000E+00  0.0000E+00 -0.1785E-13  0.0000E+00 -0.1310E-16  0.0000E+00  0.0000E+00  0.0000E+00 -0.3905E-13
     11.910      0.000     -5.000 -0.4834E-14  0.1050E-14  0.5972E-14  0.4983E-15 -0.1030E-12  0.0000E+00 -0.9602E-18  0.0000E+00  0.0000E+00 -0.1310E-13  0.0000E+00 -0.1253E-16  0.0000E+00  0.0000E+00  0.0000E+00 -0.4115E-13
     11.910      0.000     -7.000 -0.1351E-13 -0.1763E-14 -0.4262E-12  0.4732E-15 -0.2531E-11 -0.3706E-16 -0.4201E-18  0.0000E+00  0.0000E+00  0.7547E-12  0.0000E+00 -0.3260E-16  0.0000E+00  0.0000E+00  0.0000E+00 -0.1238E-12
     11.910      0.000     -9.000 -0.1961E-13 -0.1627E-14  0.6759E-16  0.4722E-15  0.3312E-11 -0.3140E-16  0.1420E-17  0.0000E+00  0.0000E+00  0.0000E+00  0.0000E+00 -0.2667E-18  0.0000E+00  0.0000E+00  0.0000E+00 -0.1818E-12
     11.910      0.000    -11.000 -0.1978E-13 -0.1388E-14 -0.8950E-16  0.4715E-15  0.3558E-11 -0.2519E-16  0.1464E-17  0.0000E+00  0.0000E+00  0.0000E+00  0.0000E+00  0.4640E-18  0.0000E+00  0.0000E+00  0.0000E+00 -0.1834E-12
     11.910      0.000    -13.000 -0.1998E-13 -0.1307E-14 -0.1625E-15  0.4706E-15  0.4021E-11 -0.2311E-16  0.1481E-17  0.0000E+00  0.0000E+00  0.0000E+00  0.0000E+00  0.9758E-18  0.0000E+00  0.0000E+00  0.0000E+00 -0.1854E-12
     11.910      0.000    -15.000 -0.2016E-13 -0.1287E-14 -0.2104E-15  0.4699E-15  0.4799E-11 -0.2259E-16  0.1487E-17  0.0000E+00  0.0000E+00  0.0000E+00  0.0000E+00  0.1243E-17  0.0000E+00  0.0000E+00  0.0000E+00 -0.1871E-12
     11.910      0.000    -17.000 -0.2025E-13 -0.1298E-14 -0.2547E-15  0.4697E-15  0.6242E-11 -0.2287E-16  0.1487E-17  0.0000E+00  0.0000E+00  0.0000E+00  0.0000E+00  0.1302E-17  0.0000E+00  0.0000E+00  0.0000E+00 -0.1879E-12
     11.910      0.000    -19.000 -0.2015E-13 -0.1299E-14 -0.3143E-15  0.4705E-15  0.7900E-11 -0.2295E-16  0.1483E-17  0.0000E+00  0.0000E+00  0.0000E+00  0.0000E+00  0.1164E-17  0.0000E+00  0.0000E+00  0.0000E+00 -0.1869E-12