
          ---- Mineral saturation index (log(Q/K)) vs. grid blocks at specified times ----

 
VARIABLES =X,       Y,      Z,       calcite    ,quartz     ,k-feldspar ,smectite-ca,muscovite  ,siderite-2 ,albite~low ,kaolinite  ,dolomite-2 ,chlorite   ,dawsonite  ,oligoclase ,illite     ,hematite   ,ankerite-2 ,magnesite  ,chalcedony ,
ZONE T= "0.499669E+01 yr"  F=POINT
      0.500      0.000     -1.000    0.000000    0.522232   -0.551287   -0.029333   -1.515001    0.000021   -0.746241    0.452590   -6.131280  -20.292314    0.188812  -16.235390    0.563867   -7.406620   -1.110187   -4.632697    0.413778
      0.500      0.000     -3.000   -0.000001    0.517825   -0.559199   -0.029961   -1.506836    0.000021   -0.754032    0.460067   -6.125433  -20.260651    0.191750  -16.256799    0.567463   -7.400382   -1.108433   -4.626850    0.409370
      0.500      0.000     -5.000   -0.000001    0.514197   -0.565642   -0.030553   -1.499620    0.000020   -0.760378    0.466641   -6.121932  -20.238837    0.194503  -16.273995    0.570431   -7.395747   -1.107383   -4.623349    0.405743
      0.500      0.000     -7.000   -0.000001    0.511816   -0.569810   -0.030997   -1.494503    0.000018   -0.764485    0.471274   -6.120627  -20.227682    0.196562  -16.284925    0.572388   -7.393065   -1.106993   -4.622044    0.403362
      0.500      0.000     -9.000   -0.000001    0.511028   -0.571144   -0.031204   -1.492410    0.000016   -0.765801    0.473157   -6.121243  -20.227522    0.197533  -16.288260    0.573040   -7.392631   -1.107179   -4.622660    0.402574
      0.500      0.000    -11.000   -0.000001    0.511863   -0.569637   -0.031144   -1.493617    0.000015   -0.764319    0.472071   -6.123264  -20.236904    0.197265  -16.284131    0.572346   -7.394323   -1.107786   -4.624681    0.403409
      0.500      0.000    -13.000   -0.000001    0.514029   -0.565858   -0.030849   -1.497673    0.000015   -0.760600    0.468463   -6.126081  -20.253335    0.195927  -16.274199    0.570529   -7.397764   -1.108631   -4.627498    0.405575
      0.500      0.000    -15.000   -0.000001    0.517688   -0.559530   -0.030272   -1.505048    0.000018   -0.754371    0.461901   -6.129467  -20.276393    0.193276  -16.257763    0.567457   -7.402955   -1.109645   -4.630883    0.409234
      0.500      0.000    -17.000    0.000000    0.524382   -0.548056   -0.029065   -1.519579    0.000033   -0.743074    0.448970   -6.132967  -20.309356    0.187651  -16.228355    0.561826   -7.411224   -1.110685   -4.634384    0.415928
      0.500      0.000    -19.000    0.000000    0.565528   -0.475886   -0.019778   -1.620550    0.000388   -0.671953    0.356227   -6.123803  -20.377955    0.140842  -16.040228    0.528063   -7.436843   -1.107687   -4.625219    0.457074
      0.500      0.000    -21.000    0.000000    1.126115    0.509868    0.000842   -3.115946   -0.000003    0.276244   -1.058647   -6.117223  -21.382009   -0.636531  -13.563604   -0.045826   -7.668884   -1.105986   -4.618640    1.017661
      0.500      0.000    -23.000    0.000000    1.128667    0.517012    0.001127   -3.112434   -0.000004    0.283131   -1.057555   -6.140748  -21.443748   -0.636517  -13.535369   -0.046518   -7.671817   -1.113045   -4.642165    1.020213
      0.500      0.000    -25.000    0.000000    1.129065    0.519255    0.001732   -3.106455   -0.000007    0.285374   -1.053043   -6.155206  -21.481446   -0.634206  -13.523129   -0.045258   -7.674082   -1.117384   -4.656623    1.020611
      0.500      0.000    -27.000    0.000001    1.118947    0.503453    0.003031   -3.070320    0.020944    0.270894   -1.019528   -6.170975  -21.448944   -0.615021  -13.552653   -0.031837   -7.630271   -1.107449   -4.672393    1.010493
      0.500      0.000    -29.000    0.000001    1.120177    0.507305    0.005611   -3.068573    0.037529    0.274608   -1.019368   -6.172610  -21.410468   -0.615212  -13.537231   -0.029658   -7.597550   -1.096330   -4.674028    1.011723
      0.500      0.000    -31.000    0.000001    1.126561    0.526214    0.020307   -3.062028    0.193139    0.292694   -1.020140   -6.167383  -21.016604   -0.615155  -13.465605   -0.017413   -7.293156   -0.985834   -4.668800    1.018107
      0.500      0.000    -33.000    0.000000    1.105343    0.835726    0.636870   -1.950471    0.325466    0.604818   -0.257051   -6.185636  -20.040186   -0.224378  -11.472498    0.807041   -7.039551   -0.898682   -4.687053    0.996889
      0.500      0.000    -35.000    0.000002    1.112553    0.847175    0.637810   -1.970084    0.325496    0.615366   -0.274976   -6.180953  -20.057303   -0.233622  -11.448788    0.799962   -7.048112   -0.897256   -4.682371    1.004099
      0.500      0.000    -37.000    0.000002    1.115943    0.853021    0.639258   -1.977537    0.324979    0.620782   -0.282112   -6.178849  -20.067179   -0.237221  -11.434797    0.797920   -7.053741   -0.896986   -4.680267    1.007489
      0.500      0.000    -39.000    0.000000    1.055905    0.807639    0.735762   -1.631893    0.331105    0.582430   -0.001491   -6.225570  -19.930798   -0.085375  -11.327339    0.990665   -7.016597   -0.906715   -4.726987    0.947451
      1.607      0.000     -1.000   -0.000001    0.522235   -0.551280   -0.029332   -1.515005    0.000021   -0.746234    0.452585   -6.131283  -20.292322    0.188810  -16.235368    0.563866   -7.406621   -1.110188   -4.632700    0.413781
      1.607      0.000     -3.000   -0.000001    0.517828   -0.559192   -0.029961   -1.506842    0.000021   -0.754024    0.460060   -6.125440  -20.260670    0.191747  -16.256774    0.567461   -7.400384   -1.108435   -4.626856    0.409374
      1.607      0.000     -5.000   -0.000001    0.514200   -0.565634   -0.030553   -1.499622    0.000020   -0.760371    0.466638   -6.121943  -20.238864    0.194501  -16.273970    0.570429   -7.395748   -1.107387   -4.623360    0.405746
      1.607      0.000     -7.000   -0.000001    0.511824   -0.569791   -0.030997   -1.494509    0.000018   -0.764466    0.471263   -6.120656  -20.227753    0.196557  -16.284857    0.572384   -7.393066   -1.107002   -4.622073    0.403369
      1.607      0.000     -9.000   -0.000001    0.511037   -0.571123   -0.031202   -1.492422    0.000016   -0.765781    0.473142   -6.121261  -20.227563    0.197525  -16.288193    0.573035   -7.392630   -1.107184   -4.622677    0.402583
      1.607      0.000    -11.000   -0.000001    0.511870   -0.569618   -0.031143   -1.493625    0.000015   -0.764300    0.472058   -6.123283  -20.236937    0.197258  -16.284064    0.572343   -7.394318   -1.107792   -4.624700    0.403416
      1.607      0.000    -13.000   -0.000001    0.514036   -0.565835   -0.030848   -1.497673    0.000015   -0.760578    0.468453   -6.126115  -20.253382    0.195920  -16.274111    0.570528   -7.397752   -1.108642   -4.627532    0.405582
      1.607      0.000    -15.000   -0.000001    0.517682   -0.559527   -0.030274   -1.505018    0.000018   -0.754368    0.461917   -6.129499  -20.276373    0.193279  -16.257720    0.567468   -7.402922   -1.109655   -4.630916    0.409228
      1.607      0.000    -17.000    0.000000    0.524273   -0.548224   -0.029088   -1.519292    0.000032   -0.743239    0.449212   -6.133031  -20.309093    0.187762  -16.228727    0.561925   -7.411091   -1.110704   -4.634448    0.415819
      1.607      0.000    -19.000    0.000000    0.561964   -0.482180   -0.020579   -1.611471    0.000380   -0.678155    0.364638   -6.125268  -20.375138    0.145238  -16.056694    0.531019   -7.435238   -1.108132   -4.626685    0.453510
      1.607      0.000    -21.000    0.000000    1.121599    0.502678    0.000879   -3.101350   -0.000002    0.269624   -1.045103   -6.122608  -21.384933   -0.628800  -13.578135   -0.040530   -7.666960   -1.107601   -4.624025    1.013145
      1.607      0.000    -23.000    0.000001    1.124282    0.509870    0.001158   -3.098616   -0.000004    0.276548   -1.044589   -6.145267  -21.445207   -0.629110  -13.550344   -0.041470   -7.670012   -1.114400   -4.646685    1.015828
      1.607      0.000    -25.000    0.000001    1.118356    0.501411    0.001808   -3.073740   -0.000002    0.268891   -1.022015   -6.163968  -21.480417   -0.616443  -13.562036   -0.033160   -7.669817   -1.120009   -4.665386    1.009902
      1.607      0.000    -27.000    0.000002    1.121742    0.507988    0.002885   -3.079075    0.002908    0.275069   -1.027725   -6.168740  -21.494908   -0.619717  -13.543169   -0.035180   -7.667605   -1.119403   -4.670158    1.013288
      1.607      0.000    -29.000    0.000001    1.107671    0.486027    0.005229   -3.031487    0.030632    0.254889   -0.983865   -6.182144  -21.426165   -0.594880  -13.585286   -0.016232   -7.606590   -1.104018   -4.683562    0.999217
      1.607      0.000    -31.000    0.000002    1.104577    0.486372    0.015391   -3.004132    0.111345    0.255611   -0.962544   -6.185246  -21.221686   -0.582625  -13.563826    0.000535   -7.446895   -1.048449   -4.686664    0.996123
      1.607      0.000    -33.000    0.000002    1.087136    0.632967    0.329649   -2.416825    0.294217    0.404259   -0.553986   -6.199140  -20.442571   -0.370943  -12.574117    0.428388   -7.087715   -0.924607   -4.700558    0.978682
      1.607      0.000    -35.000    0.000002    1.094931    0.645328    0.329686   -2.440038    0.297255    0.415690   -0.575270   -6.193588  -20.446083   -0.382419  -12.548857    0.419567   -7.088109   -0.920815   -4.695006    0.986477
      1.607      0.000    -37.000    0.000002    1.103689    0.653227    0.318535   -2.485246    0.296442    0.422526   -0.612337   -6.187103  -20.468529   -0.402257  -12.556700    0.395184   -7.095391   -0.919438   -4.688522    0.995234
      1.607      0.000    -39.000    0.000002    1.106767    0.656147    0.314981   -2.500474    0.296094    0.425068   -0.624859   -6.184879  -20.477200   -0.408910  -12.558566    0.387077   -7.098423   -0.919014   -4.686298    0.998313
      2.953      0.000     -1.000   -0.000001    0.522248   -0.551254   -0.029330   -1.515026    0.000021   -0.746208    0.452562   -6.131302  -20.292382    0.188798  -16.235286    0.563858   -7.406626   -1.110194   -4.632719    0.413793
      2.953      0.000     -3.000   -0.000001    0.517842   -0.559163   -0.029958   -1.506865    0.000021   -0.753996    0.460035   -6.125460  -20.260735    0.191734  -16.256685    0.567452   -7.400389   -1.108441   -4.626876    0.409388
      2.953      0.000     -5.000   -0.000001    0.514211   -0.565611   -0.030551   -1.499641    0.000020   -0.760347    0.466617   -6.121958  -20.238912    0.194491  -16.273897    0.570422   -7.395751   -1.107391   -4.623375    0.405757
      2.953      0.000     -7.000   -0.000001    0.511840   -0.569755   -0.030993   -1.494535    0.000018   -0.764431    0.471233   -6.120684  -20.227827    0.196542  -16.284741    0.572374   -7.393068   -1.107010   -4.622100    0.403386
      2.953      0.000     -9.000   -0.000001    0.511061   -0.571069   -0.031197   -1.492460    0.000016   -0.765727    0.473096   -6.121300  -20.227658    0.197500  -16.288017    0.573021   -7.392629   -1.107196   -4.622717    0.402607
      2.953      0.000    -11.000   -0.000001    0.511890   -0.569570   -0.031138   -1.493651    0.000015   -0.764253    0.472021   -6.123323  -20.236999    0.197236  -16.283896    0.572334   -7.394304   -1.107804   -4.624740    0.403435
      2.953      0.000    -13.000   -0.000001    0.514044   -0.565802   -0.030846   -1.497670    0.000015   -0.760544    0.468439   -6.126160  -20.253390    0.195907  -16.273969    0.570530   -7.397717   -1.108655   -4.627577    0.405590
      2.953      0.000    -15.000   -0.000001    0.517644   -0.559567   -0.030280   -1.504905    0.000018   -0.754407    0.461997   -6.129546  -20.276200    0.193307  -16.257751    0.567511   -7.402825   -1.109669   -4.630962    0.409190
      2.953      0.000    -17.000   -0.000001    0.524014   -0.548623   -0.029143   -1.518619    0.000031   -0.743632    0.449777   -6.133158  -20.308373    0.188018  -16.229613    0.562162   -7.410763   -1.110743   -4.634575    0.415560
      2.953      0.000    -19.000    0.000000    0.554854   -0.494718   -0.022228   -1.593412    0.000308   -0.690510    0.381346   -6.128275  -20.369596    0.153945  -16.089473    0.536864   -7.432031   -1.109085   -4.629692    0.446400
      2.953      0.000    -21.000    0.000000    1.124420    0.507358    0.000831   -3.110058   -0.000002    0.273935   -1.053361   -6.120027  -21.385074   -0.633435  -13.568152   -0.043745   -7.668267   -1.106827   -4.621444    1.015966
      2.953      0.000    -23.000    0.000001    1.118256    0.499926    0.001174   -3.080238   -0.000003    0.267362   -1.027267   -6.150146  -21.443750   -0.619218  -13.571818   -0.034655   -7.667316   -1.115863   -4.651564    1.009802
      2.953      0.000    -25.000    0.000001    1.126873    0.515354    0.001533   -3.100968    0.005984    0.281749   -1.047650   -6.154981  -21.460822   -0.631089  -13.532786   -0.043174   -7.660767   -1.113123   -4.656398    1.018419
      2.953      0.000    -27.000    0.000000    1.103917    0.692092    0.381663   -2.383824    0.019914    0.461395   -0.549163   -6.180910  -21.016044   -0.376827  -12.325456    0.476866   -7.625890   -1.111151   -4.682327    0.995462
      2.953      0.000    -29.000    0.000000    1.089865    0.617921    0.291180   -2.493348    0.045995    0.388932   -0.610276   -6.194699  -21.056987   -0.404558  -12.681345    0.375271   -7.568048   -1.097030   -4.696116    0.981411
      2.953      0.000    -31.000    0.000002    1.093697    0.467102    0.013225   -2.975174    0.079111    0.237659   -0.934258   -6.193395  -21.298446   -0.566748  -13.610356    0.009864   -7.505575   -1.073457   -4.694813    0.985243
      2.953      0.000    -33.000    0.000000    1.099897    0.840504    0.657738   -1.900243    0.234398    0.610292   -0.221446   -6.188811  -20.206881   -0.208853  -11.409760    0.840479   -7.206427   -0.963382   -4.690228    0.991443
      2.953      0.000    -35.000    0.000000    1.085516    0.900451    0.806843   -1.603714    0.246780    0.671945   -0.011293   -6.200162  -20.009991   -0.100500  -10.958883    1.050300   -7.177656   -0.958120   -4.701579    0.977062
      2.953      0.000    -37.000    0.000000    1.104392    0.893759    0.739969   -1.774074    0.243492    0.662991   -0.140329   -6.185816  -20.102909   -0.168370  -11.118325    0.942167   -7.193798   -0.956118   -4.687233    0.995938
      2.953      0.000    -39.000    0.000002    1.109961    0.598760    0.201834   -2.702878    0.233226    0.367306   -0.763952   -6.181877  -20.741636   -0.481126  -12.923369    0.236594   -7.217775   -0.962121   -4.683295    1.001507
      4.586      0.000     -1.000   -0.000001    0.522272   -0.551201   -0.029325   -1.515067    0.000021   -0.746156    0.452517   -6.131342  -20.292507    0.188776  -16.235121    0.563842   -7.406635   -1.110206   -4.632759    0.413818
      4.586      0.000     -3.000   -0.000001    0.517869   -0.559105   -0.029953   -1.506912    0.000021   -0.753939    0.459984   -6.125501  -20.260867    0.191709  -16.256505    0.567434   -7.400400   -1.108453   -4.626918    0.409415
      4.586      0.000     -5.000   -0.000001    0.514235   -0.565561   -0.030546   -1.499683    0.000020   -0.760298    0.466571   -6.121990  -20.239012    0.194467  -16.273741    0.570406   -7.395758   -1.107401   -4.623407    0.405781
      4.586      0.000     -7.000   -0.000001    0.511871   -0.569685   -0.030987   -1.494587    0.000018   -0.764362    0.471173   -6.120731  -20.227957    0.196510  -16.284519    0.572355   -7.393072   -1.107024   -4.622148    0.403417
      4.586      0.000     -9.000   -0.000001    0.511101   -0.570978   -0.031189   -1.492522    0.000016   -0.765637    0.473021   -6.121370  -20.227816    0.197459  -16.287715    0.572999   -7.392623   -1.107217   -4.622786    0.402646
      4.586      0.000    -11.000   -0.000001    0.511922   -0.569485   -0.031131   -1.493690    0.000015   -0.764168    0.471961   -6.123402  -20.237113    0.197199  -16.283594    0.572320   -7.394276   -1.107828   -4.624819    0.403468
      4.586      0.000    -13.000   -0.000001    0.514049   -0.565762   -0.030843   -1.497647    0.000015   -0.760504    0.468430   -6.126226  -20.253341    0.195890  -16.273773    0.570542   -7.397642   -1.108675   -4.627643    0.405595
      4.586      0.000    -15.000   -0.000001    0.517556   -0.559678   -0.030295   -1.504666    0.000017   -0.754515    0.462175   -6.129600  -20.275770    0.193373  -16.257920    0.567603   -7.402634   -1.109686   -4.631017    0.409102
      4.586      0.000    -17.000   -0.000001    0.523540   -0.549375   -0.029240   -1.517446    0.000029   -0.744371    0.450778   -6.133259  -20.306792    0.188467  -16.231361    0.562584   -7.410170   -1.110775   -4.634675    0.415086
      4.586      0.000    -19.000    0.000000    0.546236   -0.509906   -0.024256   -1.571751    0.000208   -0.705480    0.401354   -6.131548  -20.361154    0.164286  -16.129195    0.543898   -7.427796   -1.110137   -4.632965    0.437782
      4.586      0.000    -21.000    0.000000    1.098980    0.465783    0.001126   -3.031378    0.000138    0.235520   -0.979617   -6.142350  -21.381428   -0.591577  -13.656393   -0.014543   -7.656265   -1.113426   -4.643767    0.990526
      4.586      0.000    -23.000    0.000001    1.126303    0.513031    0.001032   -3.105869    0.000177    0.279435   -1.051337   -6.141323  -21.439332   -0.632871  -13.544586   -0.044008   -7.670217   -1.113090   -4.642741    1.017849
      4.586      0.000    -25.000    0.000001    1.119836    0.503358    0.001515   -3.080400   -0.000002    0.270640   -1.027933   -6.158804  -21.470769   -0.619745  -13.560076   -0.035456   -7.669897   -1.118460   -4.660222    1.011382
      4.586      0.000    -27.000    0.000000    1.118939    0.957145    0.806985   -1.709953    0.018825    0.724578   -0.112873   -6.165673  -20.531893   -0.161811  -10.830764    1.012487   -7.633676   -1.107342   -4.667090    1.010485
      4.586      0.000    -29.000    0.000000    1.102877    0.883637    0.723605   -1.800847    0.041158    0.653083   -0.159616   -6.182393  -20.577541   -0.181866  -11.169509    0.922411   -7.582829   -1.096725   -4.683810    0.994422
      4.586      0.000    -31.000    0.000001    1.116182    0.503347    0.011462   -3.046771    0.050453    0.271149   -1.000922   -6.175001  -21.375042   -0.604668  -13.535314   -0.017759   -7.572318   -1.088000   -4.676419    1.007728
      4.586      0.000    -33.000    0.000000    1.096793    0.953010    0.865603   -1.539073    0.170743    0.723181    0.021558   -6.191177  -20.122640   -0.087763  -10.714634    1.113976   -7.329480   -1.008650   -4.692594    0.988339
      4.586      0.000    -35.000    0.000000    1.065925    0.769286    0.631758   -1.841439    0.174320    0.543032   -0.153934   -6.215569  -20.377715   -0.169135  -11.621784    0.844733   -7.311470   -1.013464   -4.716986    0.957471
      4.586      0.000    -37.000    0.000000    1.099391    0.640482    0.306009   -2.494927    0.169172    0.410332   -0.617034   -6.190028  -20.770623   -0.406868  -12.605698    0.383766   -7.337262   -1.009405   -4.691445    0.990937
      4.586      0.000    -39.000    0.000000    1.108366    0.979707    0.880031   -1.549197    0.183824    0.748460    0.005904   -6.182744  -20.087929   -0.096974  -10.627423    1.119629   -7.312193   -0.996963   -4.684161    0.999912
      6.571      0.000     -1.000    0.000000    0.522303   -0.551126   -0.029322   -1.515096    0.000021   -0.746082    0.452474   -6.131449  -20.292793    0.188756  -16.234865    0.563824   -7.406647   -1.110238   -4.632866    0.413849
      6.571      0.000     -3.000   -0.000001    0.517903   -0.559026   -0.029948   -1.506953    0.000021   -0.753861    0.459931   -6.125594  -20.261126    0.191683  -16.256244    0.567414   -7.400413   -1.108481   -4.627010    0.409449
      6.571      0.000     -5.000   -0.000001    0.514273   -0.565478   -0.030538   -1.499745    0.000020   -0.760216    0.466501   -6.122052  -20.239196    0.194432  -16.273481    0.570382   -7.395770   -1.107419   -4.623468    0.405819
      6.571      0.000     -7.000   -0.000001    0.511920   -0.569578   -0.030976   -1.494668    0.000018   -0.764255    0.471080   -6.120805  -20.228152    0.196461  -16.284175    0.572326   -7.393075   -1.107046   -4.622222    0.403466
      6.571      0.000     -9.000   -0.000001    0.511146   -0.570869   -0.031178   -1.492587    0.000016   -0.765529    0.472935   -6.121456  -20.227975    0.197410  -16.287345    0.572976   -7.392603   -1.107243   -4.622873    0.402691
      6.571      0.000    -11.000   -0.000001    0.511933   -0.569436   -0.031126   -1.493687    0.000015   -0.764119    0.471935   -6.123453  -20.237050    0.197174  -16.283383    0.572326   -7.394208   -1.107843   -4.624870    0.403479
      6.571      0.000    -13.000   -0.000001    0.514007   -0.565795   -0.030847   -1.497523    0.000015   -0.760536    0.468507   -6.126269  -20.253025    0.195908  -16.273750    0.570594   -7.397495   -1.108688   -4.627686    0.405553
      6.571      0.000    -15.000   -0.000001    0.517395   -0.559895   -0.030321   -1.504241    0.000017   -0.754728    0.462502   -6.129665  -20.274980    0.193497  -16.258306    0.567768   -7.402313   -1.109705   -4.631081    0.408941
      6.571      0.000    -17.000   -0.000001    0.522846   -0.550484   -0.029377   -1.515756    0.000026   -0.745462    0.452220   -6.133326  -20.304236    0.189107  -16.233964    0.563201   -7.409279   -1.110797   -4.634743    0.414392
      6.571      0.000    -19.000    0.000000    0.538069   -0.524209   -0.026174   -1.551410    0.000127   -0.719578    0.420035   -6.134262  -20.350620    0.173807  -16.166395    0.550570   -7.423124   -1.111007   -4.635678    0.429615
      6.571      0.000    -21.000   -0.000001    0.892659    0.388008    0.534532   -1.615638    0.003812    0.177520    0.128539   -6.038649  -20.148688   -0.004910  -12.833224    0.887947   -7.561314   -1.079744   -4.540065    0.784205
      6.571      0.000    -23.000    0.000001    1.123567    0.507961    0.000975   -3.099533    0.000360    0.274703   -1.044932   -6.139079  -21.427753   -0.629104  -13.557871   -0.041329   -7.668380   -1.112289   -4.640497    1.015113
      6.571      0.000    -25.000    0.000001    1.122023    0.506393    0.001356   -3.089406    0.000076    0.273388   -1.035991   -6.152153  -21.458991   -0.624270  -13.556036   -0.038468   -7.670157   -1.116410   -4.653571    1.013569
      6.571      0.000    -27.000    0.000000    1.107993    0.570075    0.154594   -2.784150    0.010630    0.338868   -0.820006   -6.170652  -21.276028   -0.513416  -13.083888    0.176771   -7.644248   -1.114572   -4.672069    0.999539
      6.571      0.000    -29.000    0.000001    1.128078    0.518431    0.003356   -3.098841    0.000862    0.284708   -1.046376   -6.160714  -21.493357   -0.630429  -13.520810   -0.041924   -7.674049   -1.118428   -4.662132    1.019624
      6.571      0.000    -31.000    0.000000    1.096862    0.539788    0.134013   -2.781273    0.041130    0.309959   -0.807249   -6.188390  -21.255388   -0.503759  -13.193799    0.162880   -7.584180   -1.098543   -4.689807    0.988408
      6.571      0.000    -33.000    0.000000    1.095562    0.717541    0.452053   -2.236807    0.091689    0.487867   -0.442935   -6.192128  -20.779747   -0.320784  -12.119218    0.577882   -7.484191   -1.064273   -4.693545    0.987108
      6.571      0.000    -35.000    0.000000    1.116272    0.637231    0.248741   -2.643968    0.103864    0.405014   -0.731872   -6.176131  -20.984834   -0.469216  -12.732612    0.290538   -7.468890   -1.050952   -4.677548    1.007818
      6.571      0.000    -37.000    0.000002    1.110514    0.549568    0.110988   -2.859908    0.102857    0.318068   -0.870683   -6.180845  -21.144874   -0.537277  -13.221798    0.117928   -7.469505   -1.053070   -4.682263    1.002060
      6.571      0.000    -39.000    0.000000    1.123063    0.557825    0.088764   -2.935453    0.098622    0.324746   -0.931575   -6.171189  -21.185753   -0.570092  -13.251947    0.074985   -7.484042   -1.053138   -4.672606    1.014609
      8.982      0.000     -1.000   -0.000001    0.522354   -0.551012   -0.029313   -1.515162    0.000021   -0.745969    0.452392   -6.131569  -20.293128    0.188715  -16.234491    0.563795   -7.406665   -1.110274   -4.632985    0.413900
      8.982      0.000     -3.000   -0.000001    0.517948   -0.558928   -0.029940   -1.507017    0.000021   -0.753763    0.459856   -6.125687  -20.261401    0.191646  -16.255928    0.567387   -7.400431   -1.108509   -4.627104    0.409494
      8.982      0.000     -5.000   -0.000001    0.514330   -0.565355   -0.030527   -1.499843    0.000020   -0.760095    0.466393   -6.122135  -20.239451    0.194376  -16.273096    0.570345   -7.395786   -1.107444   -4.623552    0.405876
      8.982      0.000     -7.000   -0.000001    0.511974   -0.569456   -0.030964   -1.494758    0.000018   -0.764135    0.470975   -6.120886  -20.228345    0.196403  -16.283781    0.572294   -7.393070   -1.107071   -4.622303    0.403520
      8.982      0.000     -9.000   -0.000001    0.511191   -0.570751   -0.031167   -1.492649    0.000016   -0.765412    0.472845   -6.121550  -20.228088    0.197354  -16.286929    0.572956   -7.392559   -1.107271   -4.622967    0.402737
      8.982      0.000    -11.000   -0.000001    0.511931   -0.569397   -0.031122   -1.493649    0.000015   -0.764080    0.471931   -6.123511  -20.236865    0.197152  -16.283165    0.572347   -7.394090   -1.107861   -4.624928    0.403477
      8.982      0.000    -13.000   -0.000001    0.513939   -0.565855   -0.030853   -1.497323    0.000014   -0.760594    0.468634   -6.126323  -20.252491    0.195938  -16.273741    0.570680   -7.397262   -1.108704   -4.627740    0.405485
      8.982      0.000    -15.000   -0.000001    0.517132   -0.560280   -0.030364   -1.503607    0.000016   -0.755106    0.463009   -6.129653  -20.273542    0.193692  -16.259107    0.568019   -7.401829   -1.109702   -4.631070    0.408678
      8.982      0.000    -17.000   -0.000001    0.521942   -0.551944   -0.029551   -1.513610    0.000023   -0.746898    0.454061   -6.133280  -20.300546    0.189913  -16.237438    0.564000   -7.408094   -1.110785   -4.634697    0.413488
      8.982      0.000    -19.000    0.000000    0.531604   -0.535349   -0.027667   -1.535417    0.000068   -0.730556    0.434531   -6.136112  -20.339286    0.181018  -16.194897    0.555914   -7.418531   -1.111604   -4.637529    0.423150
      8.982      0.000    -21.000    0.000000    0.667891   -0.297616    0.001839   -1.890030    0.002912   -0.496759    0.107802   -6.068160  -20.418436    0.009353  -15.582880    0.440104   -7.475884   -1.089227   -4.569577    0.559437
      8.982      0.000    -23.000    0.000001    1.123118    0.506118    0.000911   -3.102219   -0.000003    0.272892   -1.046620   -6.130099  -21.406741   -0.629818  -13.566602   -0.041585   -7.668461   -1.109849   -4.631517    1.014664
      8.982      0.000    -25.000    0.000001    1.122613    0.506376    0.001172   -3.094990   -0.000005    0.273283   -1.040496   -6.143549  -21.439630   -0.626703  -13.560290   -0.039964   -7.669851   -1.113885   -4.644967    1.014158
      8.982      0.000    -27.000    0.000000    1.100764    0.671637    0.356948   -2.421995    0.007722    0.441306   -0.572662   -6.169991  -21.037657   -0.388373  -12.428921    0.447342   -7.646465   -1.116409   -4.671408    0.992310
      8.982      0.000    -29.000    0.000000    1.114627    0.962877    0.831279   -1.657045    0.013483    0.730855   -0.073576   -6.166138  -20.513648   -0.141107  -10.768593    1.048504   -7.643771   -1.111221   -4.667555    1.006173
      8.982      0.000    -31.000    0.000000    1.080199    0.963144    0.932447   -1.378340    0.029903    0.735278    0.141698   -6.199334  -20.370715   -0.026239  -10.548484    1.218996   -7.598683   -1.109686   -4.700751    0.971745
      8.982      0.000    -33.000    0.000000    1.087956    0.859888    0.727055   -1.748146    0.051880    0.631114   -0.110601   -6.197218  -20.566108   -0.153221  -11.216624    0.943573   -7.561026   -1.093667   -4.698635    0.979501
      8.982      0.000    -35.000    0.000001    1.123860    0.517376    0.014292   -3.064670    0.046006    0.284198   -1.018866   -6.169999  -21.393311   -0.614696  -13.499646   -0.022716   -7.586913   -1.089613   -4.671416    1.015406
      8.982      0.000    -37.000    0.000002    1.105731    0.525677    0.082535   -2.894138    0.057455    0.294769   -0.889758   -6.184093  -21.283340   -0.546469  -13.334660    0.086255   -7.556363   -1.085826   -4.685511    0.997277
      8.982      0.000    -39.000    0.000000    1.121398    0.578306    0.129635   -2.861665    0.057256    0.345440   -0.881288   -6.171906  -21.236092   -0.545217  -13.118378    0.129902   -7.564078   -1.082310   -4.673323    1.012944
     11.910      0.000     -1.000   -0.000001    0.522431   -0.550838   -0.029300   -1.515268    0.000021   -0.745797    0.452263   -6.131746  -20.293632    0.188652  -16.233925    0.563748   -7.406693   -1.110327   -4.633162    0.413977
     11.910      0.000     -3.000   -0.000001    0.518024   -0.558759   -0.029927   -1.507129    0.000021   -0.753597    0.459725   -6.125846  -20.261868    0.191582  -16.255387    0.567339   -7.400461   -1.108557   -4.627262    0.409570
     11.910      0.000     -5.000   -0.000001    0.514387   -0.565232   -0.030516   -1.499934    0.000020   -0.759972    0.466289   -6.122231  -20.239724    0.194323  -16.272701    0.570310   -7.395798   -1.107473   -4.623648    0.405933