
          ---- Reactive Surface Areas (m^2/ kg H2O) vs. grid blocks at specified times ----

 
VARIABLES =X,       Y,      Z,     Sl,      A_fmr,     A_Factor,  quartz     ,k-feldspar ,smectite-ca,muscovite  ,siderite-2 ,albite~low ,kaolinite  ,dolomite-2 ,chlorite   ,dawsonite  ,oligoclase ,illite     ,hematite   ,ankerite-2 ,magnesite  ,chalcedony ,
ZONE T= "0.499669E+01 yr"  F=POINT
      0.500      0.000     -1.000 0.54636E+00 0.10000E+01 0.38328E-02  0.9787E-02  0.5054E-03  0.4567E+00  0.4503E-02  0.2721E+00  0.1189E-04  0.1182E-04  0.1258E-04  0.1301E-04  0.1135E-04  0.1195E-04  0.1229E-04  0.1936E-04  0.1338E-04  0.1299E-04  0.1197E-04
      0.500      0.000     -3.000 0.57796E+00 0.10000E+01 0.38329E-02  0.9787E-02  0.5054E-03  0.4567E+00  0.4503E-02  0.2721E+00  0.1189E-04  0.1182E-04  0.1258E-04  0.1301E-04  0.1135E-04  0.1195E-04  0.1229E-04  0.1936E-04  0.1338E-04  0.1299E-04  0.1197E-04
      0.500      0.000     -5.000 0.59940E+00 0.10000E+01 0.38330E-02  0.9788E-02  0.5055E-03  0.4567E+00  0.4503E-02  0.2721E+00  0.1189E-04  0.1182E-04  0.1258E-04  0.1301E-04  0.1135E-04  0.1195E-04  0.1229E-04  0.1937E-04  0.1338E-04  0.1299E-04  0.1197E-04
      0.500      0.000     -7.000 0.61153E+00 0.10000E+01 0.38327E-02  0.9787E-02  0.5054E-03  0.4567E+00  0.4503E-02  0.2721E+00  0.1189E-04  0.1182E-04  0.1258E-04  0.1301E-04  0.1135E-04  0.1195E-04  0.1229E-04  0.1936E-04  0.1338E-04  0.1299E-04  0.1197E-04
      0.500      0.000     -9.000 0.61448E+00 0.10000E+01 0.38327E-02  0.9787E-02  0.5054E-03  0.4567E+00  0.4503E-02  0.2721E+00  0.1189E-04  0.1182E-04  0.1258E-04  0.1301E-04  0.1135E-04  0.1195E-04  0.1229E-04  0.1936E-04  0.1338E-04  0.1298E-04  0.1197E-04
      0.500      0.000    -11.000 0.60924E+00 0.10000E+01 0.38327E-02  0.9787E-02  0.5054E-03  0.4567E+00  0.4503E-02  0.2721E+00  0.1189E-04  0.1182E-04  0.1258E-04  0.1301E-04  0.1135E-04  0.1195E-04  0.1229E-04  0.1936E-04  0.1338E-04  0.1298E-04  0.1197E-04
      0.500      0.000    -13.000 0.59683E+00 0.10000E+01 0.38326E-02  0.9787E-02  0.5054E-03  0.4567E+00  0.4502E-02  0.2721E+00  0.1189E-04  0.1182E-04  0.1258E-04  0.1301E-04  0.1135E-04  0.1195E-04  0.1229E-04  0.1936E-04  0.1338E-04  0.1298E-04  0.1197E-04
      0.500      0.000    -15.000 0.57665E+00 0.10000E+01 0.38325E-02  0.9786E-02  0.5054E-03  0.4566E+00  0.4502E-02  0.2721E+00  0.1189E-04  0.1182E-04  0.1258E-04  0.1301E-04  0.1135E-04  0.1195E-04  0.1229E-04  0.1936E-04  0.1337E-04  0.1298E-04  0.1197E-04
      0.500      0.000    -17.000 0.54159E+00 0.10000E+01 0.38325E-02  0.9786E-02  0.5054E-03  0.4566E+00  0.4502E-02  0.2721E+00  0.1189E-04  0.1182E-04  0.1258E-04  0.1301E-04  0.1135E-04  0.1195E-04  0.1229E-04  0.1936E-04  0.1337E-04  0.1298E-04  0.1197E-04
      0.500      0.000    -19.000 0.44456E+00 0.10000E+01 0.38266E-02  0.9771E-02  0.5046E-03  0.4559E+00  0.4495E-02  0.2716E+00  0.1187E-04  0.1180E-04  0.1256E-04  0.1299E-04  0.1133E-04  0.1193E-04  0.1227E-04  0.1933E-04  0.1335E-04  0.1296E-04  0.1195E-04
      0.500      0.000    -21.000 0.81273E-01 0.10000E+01 0.33397E-02  0.9081E-02  0.4690E-03  0.4237E+00  0.4178E-02  0.2525E+00  0.1104E-04  0.1097E-04  0.1167E-04  0.1208E-04  0.1053E-04  0.1109E-04  0.1141E-04  0.1797E-04  0.1241E-04  0.1205E-04  0.1111E-04
      0.500      0.000    -23.000 0.00000E+00 0.10000E+01 0.00000E+00  0.9087E-02  0.4693E-03  0.4240E+00  0.4180E-02  0.2526E+00  0.1104E-04  0.1097E-04  0.1168E-04  0.1208E-04  0.1054E-04  0.1110E-04  0.1142E-04  0.1798E-04  0.1242E-04  0.1206E-04  0.1112E-04
      0.500      0.000    -25.000 0.00000E+00 0.10000E+01 0.00000E+00  0.9094E-02  0.4696E-03  0.4243E+00  0.4184E-02  0.2528E+00  0.1105E-04  0.1098E-04  0.1169E-04  0.1209E-04  0.1055E-04  0.1110E-04  0.1142E-04  0.1800E-04  0.1243E-04  0.1207E-04  0.1112E-04
      0.500      0.000    -27.000 0.00000E+00 0.10000E+01 0.00000E+00  0.9117E-02  0.4708E-03  0.4254E+00  0.4195E-02  0.2535E+00  0.1108E-04  0.1101E-04  0.1172E-04  0.1212E-04  0.1058E-04  0.1113E-04  0.1145E-04  0.1804E-04  0.1246E-04  0.1210E-04  0.1115E-04
      0.500      0.000    -29.000 0.00000E+00 0.10000E+01 0.00000E+00  0.9104E-02  0.4702E-03  0.4248E+00  0.4188E-02  0.2531E+00  0.1106E-04  0.1099E-04  0.1170E-04  0.1211E-04  0.1056E-04  0.1112E-04  0.1144E-04  0.1802E-04  0.1245E-04  0.1208E-04  0.1114E-04
      0.500      0.000    -31.000 0.00000E+00 0.10000E+01 0.00000E+00  0.9077E-02  0.4688E-03  0.4235E+00  0.4176E-02  0.2523E+00  0.1103E-04  0.1096E-04  0.1167E-04  0.1207E-04  0.1053E-04  0.1108E-04  0.1140E-04  0.1796E-04  0.1241E-04  0.1205E-04  0.1110E-04
      0.500      0.000    -33.000 0.00000E+00 0.10000E+01 0.00000E+00  0.9095E-02  0.4697E-03  0.4244E+00  0.4184E-02  0.2528E+00  0.1105E-04  0.1098E-04  0.1169E-04  0.1209E-04  0.1055E-04  0.1111E-04  0.1142E-04  0.1800E-04  0.1243E-04  0.1207E-04  0.1112E-04
      0.500      0.000    -35.000 0.00000E+00 0.10000E+01 0.00000E+00  0.9081E-02  0.4689E-03  0.4237E+00  0.4178E-02  0.2524E+00  0.1103E-04  0.1097E-04  0.1167E-04  0.1207E-04  0.1053E-04  0.1109E-04  0.1141E-04  0.1797E-04  0.1241E-04  0.1205E-04  0.1111E-04
      0.500      0.000    -37.000 0.00000E+00 0.10000E+01 0.00000E+00  0.9074E-02  0.4686E-03  0.4234E+00  0.4174E-02  0.2523E+00  0.1103E-04  0.1096E-04  0.1166E-04  0.1207E-04  0.1052E-04  0.1108E-04  0.1140E-04  0.1796E-04  0.1240E-04  0.1204E-04  0.1110E-04
      0.500      0.000    -39.000 0.00000E+00 0.10000E+01 0.00000E+00  0.9181E-02  0.4741E-03  0.4284E+00  0.4224E-02  0.2552E+00  0.1116E-04  0.1109E-04  0.1180E-04  0.1221E-04  0.1065E-04  0.1121E-04  0.1153E-04  0.1817E-04  0.1255E-04  0.1218E-04  0.1123E-04
      1.607      0.000     -1.000 0.54635E+00 0.10000E+01 0.38328E-02  0.9787E-02  0.5054E-03  0.4567E+00  0.4503E-02  0.2721E+00  0.1189E-04  0.1182E-04  0.1258E-04  0.1301E-04  0.1135E-04  0.1195E-04  0.1229E-04  0.1936E-04  0.1338E-04  0.1299E-04  0.1197E-04
      1.607      0.000     -3.000 0.57796E+00 0.10000E+01 0.38328E-02  0.9787E-02  0.5054E-03  0.4567E+00  0.4503E-02  0.2721E+00  0.1189E-04  0.1182E-04  0.1258E-04  0.1301E-04  0.1135E-04  0.1195E-04  0.1229E-04  0.1936E-04  0.1338E-04  0.1299E-04  0.1197E-04
      1.607      0.000     -5.000 0.59941E+00 0.10000E+01 0.38330E-02  0.9788E-02  0.5054E-03  0.4567E+00  0.4503E-02  0.2721E+00  0.1189E-04  0.1182E-04  0.1258E-04  0.1301E-04  0.1135E-04  0.1195E-04  0.1229E-04  0.1937E-04  0.1338E-04  0.1299E-04  0.1197E-04
      1.607      0.000     -7.000 0.61154E+00 0.10000E+01 0.38329E-02  0.9787E-02  0.5054E-03  0.4567E+00  0.4503E-02  0.2721E+00  0.1189E-04  0.1182E-04  0.1258E-04  0.1301E-04  0.1135E-04  0.1195E-04  0.1229E-04  0.1936E-04  0.1338E-04  0.1299E-04  0.1197E-04
      1.607      0.000     -9.000 0.61450E+00 0.10000E+01 0.38327E-02  0.9787E-02  0.5054E-03  0.4567E+00  0.4503E-02  0.2721E+00  0.1189E-04  0.1182E-04  0.1258E-04  0.1301E-04  0.1135E-04  0.1195E-04  0.1229E-04  0.1936E-04  0.1338E-04  0.1298E-04  0.1197E-04
      1.607      0.000    -11.000 0.60928E+00 0.10000E+01 0.38327E-02  0.9787E-02  0.5054E-03  0.4567E+00  0.4503E-02  0.2721E+00  0.1189E-04  0.1182E-04  0.1258E-04  0.1301E-04  0.1135E-04  0.1195E-04  0.1229E-04  0.1936E-04  0.1338E-04  0.1298E-04  0.1197E-04
      1.607      0.000    -13.000 0.59692E+00 0.10000E+01 0.38326E-02  0.9787E-02  0.5054E-03  0.4567E+00  0.4502E-02  0.2721E+00  0.1189E-04  0.1182E-04  0.1258E-04  0.1301E-04  0.1135E-04  0.1195E-04  0.1229E-04  0.1936E-04  0.1338E-04  0.1298E-04  0.1197E-04
      1.607      0.000    -15.000 0.57685E+00 0.10000E+01 0.38328E-02  0.9787E-02  0.5054E-03  0.4567E+00  0.4503E-02  0.2721E+00  0.1189E-04  0.1182E-04  0.1258E-04  0.1301E-04  0.1135E-04  0.1195E-04  0.1229E-04  0.1936E-04  0.1338E-04  0.1299E-04  0.1197E-04
      1.607      0.000    -17.000 0.54225E+00 0.10000E+01 0.38325E-02  0.9787E-02  0.5054E-03  0.4566E+00  0.4502E-02  0.2721E+00  0.1189E-04  0.1182E-04  0.1258E-04  0.1301E-04  0.1135E-04  0.1195E-04  0.1229E-04  0.1936E-04  0.1337E-04  0.1298E-04  0.1197E-04
      1.607      0.000    -19.000 0.44891E+00 0.10000E+01 0.38274E-02  0.9773E-02  0.5047E-03  0.4560E+00  0.4496E-02  0.2717E+00  0.1187E-04  0.1180E-04  0.1256E-04  0.1299E-04  0.1133E-04  0.1193E-04  0.1228E-04  0.1934E-04  0.1336E-04  0.1297E-04  0.1195E-04
      1.607      0.000    -21.000 0.92728E-01 0.10000E+01 0.33397E-02  0.9092E-02  0.4695E-03  0.4242E+00  0.4183E-02  0.2528E+00  0.1105E-04  0.1098E-04  0.1169E-04  0.1209E-04  0.1055E-04  0.1110E-04  0.1142E-04  0.1799E-04  0.1243E-04  0.1207E-04  0.1112E-04
      1.607      0.000    -23.000 0.00000E+00 0.10000E+01 0.00000E+00  0.9098E-02  0.4698E-03  0.4245E+00  0.4186E-02  0.2530E+00  0.1106E-04  0.1099E-04  0.1170E-04  0.1210E-04  0.1055E-04  0.1111E-04  0.1143E-04  0.1801E-04  0.1244E-04  0.1207E-04  0.1113E-04
      1.607      0.000    -25.000 0.00000E+00 0.10000E+01 0.00000E+00  0.9116E-02  0.4708E-03  0.4254E+00  0.4194E-02  0.2535E+00  0.1108E-04  0.1101E-04  0.1172E-04  0.1212E-04  0.1057E-04  0.1113E-04  0.1145E-04  0.1804E-04  0.1246E-04  0.1210E-04  0.1115E-04
      1.607      0.000    -27.000 0.00000E+00 0.10000E+01 0.00000E+00  0.9113E-02  0.4706E-03  0.4252E+00  0.4193E-02  0.2534E+00  0.1107E-04  0.1100E-04  0.1172E-04  0.1212E-04  0.1057E-04  0.1113E-04  0.1145E-04  0.1804E-04  0.1246E-04  0.1209E-04  0.1115E-04
      1.607      0.000    -29.000 0.00000E+00 0.10000E+01 0.00000E+00  0.9133E-02  0.4717E-03  0.4262E+00  0.4202E-02  0.2539E+00  0.1110E-04  0.1103E-04  0.1174E-04  0.1214E-04  0.1059E-04  0.1115E-04  0.1147E-04  0.1807E-04  0.1249E-04  0.1212E-04  0.1117E-04
      1.607      0.000    -31.000 0.00000E+00 0.10000E+01 0.00000E+00  0.9132E-02  0.4716E-03  0.4261E+00  0.4201E-02  0.2539E+00  0.1110E-04  0.1103E-04  0.1174E-04  0.1214E-04  0.1059E-04  0.1115E-04  0.1147E-04  0.1807E-04  0.1248E-04  0.1212E-04  0.1117E-04
      1.607      0.000    -33.000 0.00000E+00 0.10000E+01 0.00000E+00  0.9180E-02  0.4741E-03  0.4284E+00  0.4223E-02  0.2552E+00  0.1116E-04  0.1109E-04  0.1180E-04  0.1221E-04  0.1065E-04  0.1121E-04  0.1153E-04  0.1817E-04  0.1255E-04  0.1218E-04  0.1123E-04
      1.607      0.000    -35.000 0.00000E+00 0.10000E+01 0.00000E+00  0.9167E-02  0.4734E-03  0.4277E+00  0.4217E-02  0.2548E+00  0.1114E-04  0.1107E-04  0.1178E-04  0.1219E-04  0.1063E-04  0.1119E-04  0.1151E-04  0.1814E-04  0.1253E-04  0.1216E-04  0.1121E-04
      1.607      0.000    -37.000 0.00000E+00 0.10000E+01 0.00000E+00  0.9151E-02  0.4726E-03  0.4270E+00  0.4210E-02  0.2544E+00  0.1112E-04  0.1105E-04  0.1176E-04  0.1217E-04  0.1061E-04  0.1117E-04  0.1150E-04  0.1811E-04  0.1251E-04  0.1214E-04  0.1119E-04
      1.607      0.000    -39.000 0.00000E+00 0.10000E+01 0.00000E+00  0.9146E-02  0.4723E-03  0.4267E+00  0.4208E-02  0.2543E+00  0.1111E-04  0.1104E-04  0.1176E-04  0.1216E-04  0.1061E-04  0.1117E-04  0.1149E-04  0.1810E-04  0.1250E-04  0.1214E-04  0.1119E-04
      2.953      0.000     -1.000 0.54635E+00 0.10000E+01 0.38328E-02  0.9787E-02  0.5054E-03  0.4567E+00  0.4503E-02  0.2721E+00  0.1189E-04  0.1182E-04  0.1258E-04  0.1301E-04  0.1135E-04  0.1195E-04  0.1229E-04  0.1936E-04  0.1338E-04  0.1299E-04  0.1197E-04
      2.953      0.000     -3.000 0.57796E+00 0.10000E+01 0.38328E-02  0.9787E-02  0.5054E-03  0.4567E+00  0.4503E-02  0.2721E+00  0.1189E-04  0.1182E-04  0.1258E-04  0.1301E-04  0.1135E-04  0.1195E-04  0.1229E-04  0.1936E-04  0.1338E-04  0.1299E-04  0.1197E-04
      2.953      0.000     -5.000 0.59941E+00 0.10000E+01 0.38330E-02  0.9788E-02  0.5054E-03  0.4567E+00  0.4503E-02  0.2721E+00  0.1189E-04  0.1182E-04  0.1258E-04  0.1301E-04  0.1135E-04  0.1195E-04  0.1229E-04  0.1936E-04  0.1338E-04  0.1299E-04  0.1197E-04
      2.953      0.000     -7.000 0.61156E+00 0.10000E+01 0.38329E-02  0.9787E-02  0.5054E-03  0.4567E+00  0.4503E-02  0.2721E+00  0.1189E-04  0.1182E-04  0.1258E-04  0.1301E-04  0.1135E-04  0.1195E-04  0.1229E-04  0.1936E-04  0.1338E-04  0.1299E-04  0.1197E-04
      2.953      0.000     -9.000 0.61456E+00 0.10000E+01 0.38327E-02  0.9787E-02  0.5054E-03  0.4567E+00  0.4503E-02  0.2721E+00  0.1189E-04  0.1182E-04  0.1258E-04  0.1301E-04  0.1135E-04  0.1195E-04  0.1229E-04  0.1936E-04  0.1338E-04  0.1298E-04  0.1197E-04
      2.953      0.000    -11.000 0.60939E+00 0.10000E+01 0.38327E-02  0.9787E-02  0.5054E-03  0.4567E+00  0.4503E-02  0.2721E+00  0.1189E-04  0.1182E-04  0.1258E-04  0.1301E-04  0.1135E-04  0.1195E-04  0.1229E-04  0.1936E-04  0.1338E-04  0.1298E-04  0.1197E-04
      2.953      0.000    -13.000 0.59714E+00 0.10000E+01 0.38326E-02  0.9787E-02  0.5054E-03  0.4567E+00  0.4502E-02  0.2721E+00  0.1189E-04  0.1182E-04  0.1258E-04  0.1301E-04  0.1135E-04  0.1195E-04  0.1229E-04  0.1936E-04  0.1338E-04  0.1298E-04  0.1197E-04
      2.953      0.000    -15.000 0.57735E+00 0.10000E+01 0.38327E-02  0.9787E-02  0.5054E-03  0.4567E+00  0.4503E-02  0.2721E+00  0.1189E-04  0.1182E-04  0.1258E-04  0.1301E-04  0.1135E-04  0.1195E-04  0.1229E-04  0.1936E-04  0.1338E-04  0.1299E-04  0.1197E-04
      2.953      0.000    -17.000 0.54388E+00 0.10000E+01 0.38325E-02  0.9786E-02  0.5054E-03  0.4566E+00  0.4502E-02  0.2721E+00  0.1189E-04  0.1182E-04  0.1258E-04  0.1301E-04  0.1135E-04  0.1195E-04  0.1229E-04  0.1936E-04  0.1337E-04  0.1298E-04  0.1197E-04
      2.953      0.000    -19.000 0.45846E+00 0.10000E+01 0.38288E-02  0.9777E-02  0.5049E-03  0.4562E+00  0.4498E-02  0.2718E+00  0.1188E-04  0.1180E-04  0.1257E-04  0.1300E-04  0.1134E-04  0.1194E-04  0.1228E-04  0.1934E-04  0.1336E-04  0.1297E-04  0.1196E-04
      2.953      0.000    -21.000 0.11690E+00 0.10000E+01 0.34302E-02  0.9088E-02  0.4693E-03  0.4241E+00  0.4181E-02  0.2527E+00  0.1104E-04  0.1098E-04  0.1168E-04  0.1209E-04  0.1054E-04  0.1110E-04  0.1142E-04  0.1799E-04  0.1242E-04  0.1206E-04  0.1112E-04
      2.953      0.000    -23.000 0.00000E+00 0.10000E+01 0.00000E+00  0.9111E-02  0.4705E-03  0.4251E+00  0.4192E-02  0.2533E+00  0.1107E-04  0.1100E-04  0.1171E-04  0.1212E-04  0.1057E-04  0.1113E-04  0.1145E-04  0.1803E-04  0.1246E-04  0.1209E-04  0.1115E-04
      2.953      0.000    -25.000 0.00000E+00 0.10000E+01 0.00000E+00  0.9102E-02  0.4700E-03  0.4247E+00  0.4187E-02  0.2531E+00  0.1106E-04  0.1099E-04  0.1170E-04  0.1210E-04  0.1056E-04  0.1112E-04  0.1143E-04  0.1801E-04  0.1244E-04  0.1208E-04  0.1113E-04
      2.953      0.000    -27.000 0.00000E+00 0.10000E+01 0.00000E+00  0.9146E-02  0.4723E-03  0.4268E+00  0.4208E-02  0.2543E+00  0.1111E-04  0.1104E-04  0.1176E-04  0.1216E-04  0.1061E-04  0.1117E-04  0.1149E-04  0.1810E-04  0.1250E-04  0.1214E-04  0.1119E-04
      2.953      0.000    -29.000 0.00000E+00 0.10000E+01 0.00000E+00  0.9165E-02  0.4733E-03  0.4277E+00  0.4217E-02  0.2548E+00  0.1114E-04  0.1107E-04  0.1178E-04  0.1219E-04  0.1063E-04  0.1119E-04  0.1151E-04  0.1814E-04  0.1253E-04  0.1216E-04  0.1121E-04
      2.953      0.000    -31.000 0.00000E+00 0.10000E+01 0.00000E+00  0.9156E-02  0.4729E-03  0.4272E+00  0.4212E-02  0.2546E+00  0.1113E-04  0.1106E-04  0.1177E-04  0.1218E-04  0.1062E-04  0.1118E-04  0.1150E-04  0.1812E-04  0.1252E-04  0.1215E-04  0.1120E-04
      2.953      0.000    -33.000 0.00000E+00 0.10000E+01 0.00000E+00  0.9163E-02  0.4732E-03  0.4275E+00  0.4215E-02  0.2547E+00  0.1113E-04  0.1106E-04  0.1178E-04  0.1218E-04  0.1063E-04  0.1119E-04  0.1151E-04  0.1813E-04  0.1252E-04  0.1216E-04  0.1121E-04
      2.953      0.000    -35.000 0.00000E+00 0.10000E+01 0.00000E+00  0.9188E-02  0.4745E-03  0.4287E+00  0.4227E-02  0.2554E+00  0.1116E-04  0.1109E-04  0.1181E-04  0.1222E-04  0.1066E-04  0.1122E-04  0.1154E-04  0.1818E-04  0.1256E-04  0.1219E-04  0.1124E-04
      2.953      0.000    -37.000 0.00000E+00 0.10000E+01 0.00000E+00  0.9155E-02  0.4728E-03  0.4272E+00  0.4212E-02  0.2545E+00  0.1112E-04  0.1105E-04  0.1177E-04  0.1217E-04  0.1062E-04  0.1118E-04  0.1150E-04  0.1812E-04  0.1251E-04  0.1215E-04  0.1120E-04
      2.953      0.000    -39.000 0.00000E+00 0.10000E+01 0.00000E+00  0.9145E-02  0.4723E-03  0.4267E+00  0.4207E-02  0.2543E+00  0.1111E-04  0.1104E-04  0.1176E-04  0.1216E-04  0.1061E-04  0.1117E-04  0.1149E-04  0.1810E-04  0.1250E-04  0.1214E-04  0.1119E-04
      4.586      0.000     -1.000 0.54635E+00 0.10000E+01 0.38328E-02  0.9787E-02  0.5054E-03  0.4567E+00  0.4503E-02  0.2721E+00  0.1189E-04  0.1182E-04  0.1258E-04  0.1301E-04  0.1135E-04  0.1195E-04  0.1229E-04  0.1936E-04  0.1338E-04  0.1299E-04  0.1197E-04
      4.586      0.000     -3.000 0.57795E+00 0.10000E+01 0.38328E-02  0.9787E-02  0.5054E-03  0.4567E+00  0.4503E-02  0.2721E+00  0.1189E-04  0.1182E-04  0.1258E-04  0.1301E-04  0.1135E-04  0.1195E-04  0.1229E-04  0.1936E-04  0.1338E-04  0.1299E-04  0.1197E-04
      4.586      0.000     -5.000 0.59941E+00 0.10000E+01 0.38329E-02  0.9788E-02  0.5054E-03  0.4567E+00  0.4503E-02  0.2721E+00  0.1189E-04  0.1182E-04  0.1258E-04  0.1301E-04  0.1135E-04  0.1195E-04  0.1229E-04  0.1936E-04  0.1338E-04  0.1299E-04  0.1197E-04
      4.586      0.000     -7.000 0.61160E+00 0.10000E+01 0.38329E-02  0.9787E-02  0.5054E-03  0.4567E+00  0.4503E-02  0.2721E+00  0.1189E-04  0.1182E-04  0.1258E-04  0.1301E-04  0.1135E-04  0.1195E-04  0.1229E-04  0.1936E-04  0.1338E-04  0.1299E-04  0.1197E-04
      4.586      0.000     -9.000 0.61467E+00 0.10000E+01 0.38328E-02  0.9787E-02  0.5054E-03  0.4567E+00  0.4503E-02  0.2721E+00  0.1189E-04  0.1182E-04  0.1258E-04  0.1301E-04  0.1135E-04  0.1195E-04  0.1229E-04  0.1936E-04  0.1338E-04  0.1299E-04  0.1197E-04
      4.586      0.000    -11.000 0.60961E+00 0.10000E+01 0.38327E-02  0.9787E-02  0.5054E-03  0.4567E+00  0.4503E-02  0.2721E+00  0.1189E-04  0.1182E-04  0.1258E-04  0.1301E-04  0.1135E-04  0.1195E-04  0.1229E-04  0.1936E-04  0.1338E-04  0.1298E-04  0.1197E-04
      4.586      0.000    -13.000 0.59757E+00 0.10000E+01 0.38329E-02  0.9787E-02  0.5054E-03  0.4567E+00  0.4503E-02  0.2721E+00  0.1189E-04  0.1182E-04  0.1258E-04  0.1301E-04  0.1135E-04  0.1195E-04  0.1229E-04  0.1936E-04  0.1338E-04  0.1299E-04  0.1197E-04
      4.586      0.000    -15.000 0.57832E+00 0.10000E+01 0.38327E-02  0.9787E-02  0.5054E-03  0.4567E+00  0.4503E-02  0.2721E+00  0.1189E-04  0.1182E-04  0.1258E-04  0.1301E-04  0.1135E-04  0.1195E-04  0.1229E-04  0.1936E-04  0.1338E-04  0.1298E-04  0.1197E-04
      4.586      0.000    -17.000 0.54677E+00 0.10000E+01 0.38327E-02  0.9787E-02  0.5054E-03  0.4567E+00  0.4503E-02  0.2721E+00  0.1189E-04  0.1182E-04  0.1258E-04  0.1301E-04  0.1135E-04  0.1195E-04  0.1229E-04  0.1936E-04  0.1338E-04  0.1298E-04  0.1197E-04
      4.586      0.000    -19.000 0.47269E+00 0.10000E+01 0.38307E-02  0.9782E-02  0.5052E-03  0.4564E+00  0.4500E-02  0.2719E+00  0.1188E-04  0.1181E-04  0.1257E-04  0.1300E-04  0.1134E-04  0.1194E-04  0.1229E-04  0.1935E-04  0.1337E-04  0.1298E-04  0.1196E-04
      4.586      0.000    -21.000 0.16032E+00 0.10000E+01 0.35790E-02  0.9139E-02  0.4720E-03  0.4264E+00  0.4204E-02  0.2541E+00  0.1111E-04  0.1104E-04  0.1175E-04  0.1215E-04  0.1060E-04  0.1116E-04  0.1148E-04  0.1809E-04  0.1249E-04  0.1213E-04  0.1118E-04
      4.586      0.000    -23.000 0.00000E+00 0.10000E+01 0.00000E+00  0.9098E-02  0.4698E-03  0.4245E+00  0.4185E-02  0.2529E+00  0.1106E-04  0.1099E-04  0.1170E-04  0.1210E-04  0.1055E-04  0.1111E-04  0.1143E-04  0.1800E-04  0.1244E-04  0.1207E-04  0.1113E-04
      4.586      0.000    -25.000 0.00000E+00 0.10000E+01 0.00000E+00  0.9115E-02  0.4707E-03  0.4253E+00  0.4193E-02  0.2534E+00  0.1108E-04  0.1101E-04  0.1172E-04  0.1212E-04  0.1057E-04  0.1113E-04  0.1145E-04  0.1804E-04  0.1246E-04  0.1210E-04  0.1115E-04
      4.586      0.000    -27.000 0.00000E+00 0.10000E+01 0.00000E+00  0.9118E-02  0.4709E-03  0.4254E+00  0.4195E-02  0.2535E+00  0.1108E-04  0.1101E-04  0.1172E-04  0.1212E-04  0.1058E-04  0.1113E-04  0.1145E-04  0.1804E-04  0.1246E-04  0.1210E-04  0.1115E-04
      4.586      0.000    -29.000 0.00000E+00 0.10000E+01 0.00000E+00  0.9142E-02  0.4721E-03  0.4266E+00  0.4206E-02  0.2542E+00  0.1111E-04  0.1104E-04  0.1175E-04  0.1216E-04  0.1060E-04  0.1116E-04  0.1148E-04  0.1809E-04  0.1250E-04  0.1213E-04  0.1118E-04
      4.586      0.000    -31.000 0.00000E+00 0.10000E+01 0.00000E+00  0.9118E-02  0.4709E-03  0.4254E+00  0.4195E-02  0.2535E+00  0.1108E-04  0.1101E-04  0.1172E-04  0.1212E-04  0.1058E-04  0.1113E-04  0.1145E-04  0.1804E-04  0.1246E-04  0.1210E-04  0.1115E-04
      4.586      0.000    -33.000 0.00000E+00 0.10000E+01 0.00000E+00  0.9171E-02  0.4736E-03  0.4279E+00  0.4219E-02  0.2550E+00  0.1114E-04  0.1107E-04  0.1179E-04  0.1219E-04  0.1064E-04  0.1120E-04  0.1152E-04  0.1815E-04  0.1254E-04  0.1217E-04  0.1122E-04
      4.586      0.000    -35.000 0.00000E+00 0.10000E+01 0.00000E+00  0.9224E-02  0.4764E-03  0.4304E+00  0.4244E-02  0.2564E+00  0.1121E-04  0.1114E-04  0.1186E-04  0.1227E-04  0.1070E-04  0.1126E-04  0.1159E-04  0.1825E-04  0.1261E-04  0.1224E-04  0.1128E-04
      4.586      0.000    -37.000 0.00000E+00 0.10000E+01 0.00000E+00  0.9167E-02  0.4734E-03  0.4278E+00  0.4218E-02  0.2549E+00  0.1114E-04  0.1107E-04  0.1178E-04  0.1219E-04  0.1063E-04  0.1119E-04  0.1152E-04  0.1814E-04  0.1253E-04  0.1217E-04  0.1121E-04
      4.586      0.000    -39.000 0.00000E+00 0.10000E+01 0.00000E+00  0.9151E-02  0.4726E-03  0.4270E+00  0.4210E-02  0.2544E+00  0.1112E-04  0.1105E-04  0.1176E-04  0.1217E-04  0.1061E-04  0.1117E-04  0.1150E-04  0.1811E-04  0.1251E-04  0.1214E-04  0.1119E-04
      6.571      0.000     -1.000 0.54634E+00 0.10000E+01 0.38331E-02  0.9788E-02  0.5055E-03  0.4567E+00  0.4503E-02  0.2721E+00  0.1189E-04  0.1182E-04  0.1258E-04  0.1301E-04  0.1135E-04  0.1195E-04  0.1229E-04  0.1937E-04  0.1338E-04  0.1299E-04  0.1197E-04
      6.571      0.000     -3.000 0.57794E+00 0.10000E+01 0.38331E-02  0.9788E-02  0.5055E-03  0.4567E+00  0.4503E-02  0.2721E+00  0.1189E-04  0.1182E-04  0.1258E-04  0.1301E-04  0.1135E-04  0.1195E-04  0.1229E-04  0.1937E-04  0.1338E-04  0.1299E-04  0.1197E-04
      6.571      0.000     -5.000 0.59942E+00 0.10000E+01 0.38329E-02  0.9787E-02  0.5054E-03  0.4567E+00  0.4503E-02  0.2721E+00  0.1189E-04  0.1182E-04  0.1258E-04  0.1301E-04  0.1135E-04  0.1195E-04  0.1229E-04  0.1936E-04  0.1338E-04  0.1299E-04  0.1197E-04
      6.571      0.000     -7.000 0.61167E+00 0.10000E+01 0.38328E-02  0.9787E-02  0.5054E-03  0.4567E+00  0.4503E-02  0.2721E+00  0.1189E-04  0.1182E-04  0.1258E-04  0.1301E-04  0.1135E-04  0.1195E-04  0.1229E-04  0.1936E-04  0.1338E-04  0.1299E-04  0.1197E-04
      6.571      0.000     -9.000 0.61486E+00 0.10000E+01 0.38328E-02  0.9787E-02  0.5054E-03  0.4567E+00  0.4503E-02  0.2721E+00  0.1189E-04  0.1182E-04  0.1258E-04  0.1301E-04  0.1135E-04  0.1195E-04  0.1229E-04  0.1936E-04  0.1338E-04  0.1299E-04  0.1197E-04
      6.571      0.000    -11.000 0.60999E+00 0.10000E+01 0.38329E-02  0.9787E-02  0.5054E-03  0.4567E+00  0.4503E-02  0.2721E+00  0.1189E-04  0.1182E-04  0.1258E-04  0.1301E-04  0.1135E-04  0.1195E-04  0.1229E-04  0.1936E-04  0.1338E-04  0.1299E-04  0.1197E-04
      6.571      0.000    -13.000 0.59831E+00 0.10000E+01 0.38328E-02  0.9787E-02  0.5054E-03  0.4567E+00  0.4503E-02  0.2721E+00  0.1189E-04  0.1182E-04  0.1258E-04  0.1301E-04  0.1135E-04  0.1195E-04  0.1229E-04  0.1936E-04  0.1338E-04  0.1299E-04  0.1197E-04
      6.571      0.000    -15.000 0.57990E+00 0.10000E+01 0.38327E-02  0.9787E-02  0.5054E-03  0.4567E+00  0.4503E-02  0.2721E+00  0.1189E-04  0.1182E-04  0.1258E-04  0.1301E-04  0.1135E-04  0.1195E-04  0.1229E-04  0.1936E-04  0.1338E-04  0.1298E-04  0.1197E-04
      6.571      0.000    -17.000 0.55108E+00 0.10000E+01 0.38327E-02  0.9787E-02  0.5054E-03  0.4567E+00  0.4503E-02  0.2721E+00  0.1189E-04  0.1182E-04  0.1258E-04  0.1301E-04  0.1135E-04  0.1195E-04  0.1229E-04  0.1936E-04  0.1338E-04  0.1299E-04  0.1197E-04
      6.571      0.000    -19.000 0.49047E+00 0.10000E+01 0.38320E-02  0.9785E-02  0.5053E-03  0.4566E+00  0.4502E-02  0.2720E+00  0.1189E-04  0.1181E-04  0.1258E-04  0.1301E-04  0.1135E-04  0.1195E-04  0.1229E-04  0.1936E-04  0.1337E-04  0.1298E-04  0.1197E-04
      6.571      0.000    -21.000 0.23297E+00 0.10000E+01 0.37083E-02  0.9469E-02  0.4890E-03  0.4418E+00  0.4356E-02  0.2633E+00  0.1151E-04  0.1144E-04  0.1217E-04  0.1259E-04  0.1098E-04  0.1156E-04  0.1190E-04  0.1874E-04  0.1294E-04  0.1257E-04  0.1158E-04
      6.571      0.000    -23.000 0.00000E+00 0.10000E+01 0.00000E+00  0.9103E-02  0.4701E-03  0.4248E+00  0.4188E-02  0.2531E+00  0.1106E-04  0.1099E-04  0.1170E-04  0.1210E-04  0.1056E-04  0.1112E-04  0.1144E-04  0.1802E-04  0.1244E-04  0.1208E-04  0.1114E-04
      6.571      0.000    -25.000 0.00000E+00 0.10000E+01 0.00000E+00  0.9109E-02  0.4704E-03  0.4250E+00  0.4191E-02  0.2533E+00  0.1107E-04  0.1100E-04  0.1171E-04  0.1211E-04  0.1057E-04  0.1112E-04  0.1144E-04  0.1803E-04  0.1245E-04  0.1209E-04  0.1114E-04
      6.571      0.000    -27.000 0.00000E+00 0.10000E+01 0.00000E+00  0.9133E-02  0.4717E-03  0.4262E+00  0.4202E-02  0.2539E+00  0.1110E-04  0.1103E-04  0.1174E-04  0.1214E-04  0.1059E-04  0.1115E-04  0.1147E-04  0.1807E-04  0.1249E-04  0.1212E-04  0.1117E-04
      6.571      0.000    -29.000 0.00000E+00 0.10000E+01 0.00000E+00  0.9096E-02  0.4698E-03  0.4244E+00  0.4185E-02  0.2529E+00  0.1105E-04  0.1098E-04  0.1169E-04  0.1210E-04  0.1055E-04  0.1111E-04  0.1143E-04  0.1800E-04  0.1244E-04  0.1207E-04  0.1113E-04
      6.571      0.000    -31.000 0.00000E+00 0.10000E+01 0.00000E+00  0.9158E-02  0.4729E-03  0.4273E+00  0.4213E-02  0.2546E+00  0.1113E-04  0.1106E-04  0.1177E-04  0.1218E-04  0.1062E-04  0.1118E-04  0.1150E-04  0.1812E-04  0.1252E-04  0.1215E-04  0.1120E-04
      6.571      0.000    -33.000 0.00000E+00 0.10000E+01 0.00000E+00  0.9171E-02  0.4736E-03  0.4279E+00  0.4219E-02  0.2550E+00  0.1114E-04  0.1108E-04  0.1179E-04  0.1220E-04  0.1064E-04  0.1120E-04  0.1152E-04  0.1815E-04  0.1254E-04  0.1217E-04  0.1122E-04
      6.571      0.000    -35.000 0.00000E+00 0.10000E+01 0.00000E+00  0.9137E-02  0.4718E-03  0.4263E+00  0.4203E-02  0.2540E+00  0.1110E-04  0.1103E-04  0.1175E-04  0.1215E-04  0.1060E-04  0.1116E-04  0.1148E-04  0.1808E-04  0.1249E-04  0.1213E-04  0.1118E-04
      6.571      0.000    -37.000 0.00000E+00 0.10000E+01 0.00000E+00  0.9148E-02  0.4724E-03  0.4269E+00  0.4209E-02  0.2543E+00  0.1112E-04  0.1105E-04  0.1176E-04  0.1216E-04  0.1061E-04  0.1117E-04  0.1149E-04  0.1810E-04  0.1251E-04  0.1214E-04  0.1119E-04
      6.571      0.000    -39.000 0.00000E+00 0.10000E+01 0.00000E+00  0.9125E-02  0.4712E-03  0.4258E+00  0.4198E-02  0.2537E+00  0.1109E-04  0.1102E-04  0.1173E-04  0.1213E-04  0.1058E-04  0.1114E-04  0.1146E-04  0.1806E-04  0.1247E-04  0.1211E-04  0.1116E-04
      8.982      0.000     -1.000 0.54632E+00 0.10000E+01 0.38329E-02  0.9787E-02  0.5054E-03  0.4567E+00  0.4503E-02  0.2721E+00  0.1189E-04  0.1182E-04  0.1258E-04  0.1301E-04  0.1135E-04  0.1195E-04  0.1229E-04  0.1936E-04  0.1338E-04  0.1299E-04  0.1197E-04
      8.982      0.000     -3.000 0.57791E+00 0.10000E+01 0.38329E-02  0.9788E-02  0.5054E-03  0.4567E+00  0.4503E-02  0.2721E+00  0.1189E-04  0.1182E-04  0.1258E-04  0.1301E-04  0.1135E-04  0.1195E-04  0.1229E-04  0.1936E-04  0.1338E-04  0.1299E-04  0.1197E-04
      8.982      0.000     -5.000 0.59943E+00 0.10000E+01 0.38329E-02  0.9787E-02  0.5054E-03  0.4567E+00  0.4503E-02  0.2721E+00  0.1189E-04  0.1182E-04  0.1258E-04  0.1301E-04  0.1135E-04  0.1195E-04  0.1229E-04  0.1936E-04  0.1338E-04  0.1299E-04  0.1197E-04
      8.982      0.000     -7.000 0.61179E+00 0.10000E+01 0.38330E-02  0.9788E-02  0.5055E-03  0.4567E+00  0.4503E-02  0.2721E+00  0.1189E-04  0.1182E-04  0.1258E-04  0.1301E-04  0.1135E-04  0.1195E-04  0.1229E-04  0.1937E-04  0.1338E-04  0.1299E-04  0.1197E-04
      8.982      0.000     -9.000 0.61517E+00 0.10000E+01 0.38329E-02  0.9787E-02  0.5054E-03  0.4567E+00  0.4503E-02  0.2721E+00  0.1189E-04  0.1182E-04  0.1258E-04  0.1301E-04  0.1135E-04  0.1195E-04  0.1229E-04  0.1936E-04  0.1338E-04  0.1299E-04  0.1197E-04
      8.982      0.000    -11.000 0.61061E+00 0.10000E+01 0.38330E-02  0.9788E-02  0.5055E-03  0.4567E+00  0.4503E-02  0.2721E+00  0.1189E-04  0.1182E-04  0.1258E-04  0.1301E-04  0.1135E-04  0.1195E-04  0.1229E-04  0.1937E-04  0.1338E-04  0.1299E-04  0.1197E-04
      8.982      0.000    -13.000 0.59946E+00 0.10000E+01 0.38329E-02  0.9787E-02  0.5054E-03  0.4567E+00  0.4503E-02  0.2721E+00  0.1189E-04  0.1182E-04  0.1258E-04  0.1301E-04  0.1135E-04  0.1195E-04  0.1229E-04  0.1936E-04  0.1338E-04  0.1299E-04  0.1197E-04
      8.982      0.000    -15.000 0.58220E+00 0.10000E+01 0.38328E-02  0.9787E-02  0.5054E-03  0.4567E+00  0.4503E-02  0.2721E+00  0.1189E-04  0.1182E-04  0.1258E-04  0.1301E-04  0.1135E-04  0.1195E-04  0.1229E-04  0.1936E-04  0.1338E-04  0.1299E-04  0.1197E-04
      8.982      0.000    -17.000 0.55671E+00 0.10000E+01 0.38328E-02  0.9787E-02  0.5054E-03  0.4567E+00  0.4503E-02  0.2721E+00  0.1189E-04  0.1182E-04  0.1258E-04  0.1301E-04  0.1135E-04  0.1195E-04  0.1229E-04  0.1936E-04  0.1338E-04  0.1299E-04  0.1197E-04
      8.982      0.000    -19.000 0.51024E+00 0.10000E+01 0.38327E-02  0.9787E-02  0.5054E-03  0.4567E+00  0.4503E-02  0.2721E+00  0.1189E-04  0.1182E-04  0.1258E-04  0.1301E-04  0.1135E-04  0.1195E-04  0.1229E-04  0.1936E-04  0.1338E-04  0.1298E-04  0.1197E-04
      8.982      0.000    -21.000 0.33845E+00 0.10000E+01 0.38012E-02  0.9707E-02  0.5013E-03  0.4529E+00  0.4466E-02  0.2699E+00  0.1179E-04  0.1172E-04  0.1248E-04  0.1291E-04  0.1126E-04  0.1185E-04  0.1219E-04  0.1921E-04  0.1327E-04  0.1288E-04  0.1187E-04
      8.982      0.000    -23.000 0.00000E+00 0.10000E+01 0.00000E+00  0.9100E-02  0.4699E-03  0.4246E+00  0.4186E-02  0.2530E+00  0.1106E-04  0.1099E-04  0.1170E-04  0.1210E-04  0.1056E-04  0.1111E-04  0.1143E-04  0.1801E-04  0.1244E-04  0.1208E-04  0.1113E-04